First line of this test
2 atoms
1 bonds
0 angles
4 atom types
1 bond types
2 angle types
-100.0 100.0 xlo xhi
-100.0 100.0 ylo yhi
-4.25 0.25 zlo zhi

Masses

1 1
2 1
3 1
4 1


Atoms

1 0 4 0.0 -0.5 -2.0
2 0 4 0.0 0.5 -2.0


Bonds

1 1 1 2
