units               lj
dimension           2
atom_style          molecular
read_data           configuration.txt extra/bond/per/atom 5  extra/special/per/atom 20  extra/angle/per/atom 3
Reading data file ...
  orthogonal box = (-100.00000 -100.00000 -4.2500000) to (100.00000 100.00000 0.25000000)
  1 by 1 by 1 MPI processor grid
  reading atoms ...
  2 atoms
  scanning bonds ...
  6 = max bonds/atom
  reading bonds ...
  1 bonds
Finding 1-2 1-3 1-4 neighbors ...
  special bond factors lj:    0        0        0       
  special bond factors coul:  0        0        0       
     1 = max # of 1-2 neighbors
     0 = max # of 1-3 neighbors
     0 = max # of 1-4 neighbors
    21 = max # of special neighbors
  special bonds CPU = 0.000 seconds
  read_data CPU = 0.003 seconds
variable            ron equal 0.8                                 # growth rate [monomers/s]
variable            rdis equal 1                                 # dissociation rate [monomers/s]
variable            tauhyd equal 80.0                              # hydrolysis time [seconds]
variable            rnuc equal 0.1                               # nucleation rate [filaments/s]
variable            Kbond equal 1000.0                               # bond constant [kT/sigma2]
variable            Kbend equal 800.0                               # bend constant [kT/sigma2]
variable            Kobst equal 100.0                               # bend constant [kT/sigma2]
variable            tstep equal 0.001000                                 # simulation timestep size [seconds]
variable            realtime equal step*${tstep}                   # simulation time in real units [seconds]
variable            realtime equal step*0.001                   
variable            run_time equal 1000.0                            # simulation run time [seconds]
variable            treact equal 0.100000                            # reaction attempt time [seconds]
variable            dtheta equal 1.000000                            # requilibrium bond angle [seconds]
variable            frame_rate equal 10.0                          # coarse dumping interval [seconds]
variable            seed equal 1234                                  # random number generator seed
variable            maxatoms equal 40010                              # maximum number of atoms allowed in the system
variable            fCurv equal 0.000000                                 # magnitude of the curvature force [kT/sigma]
variable            fSwim equal 0.000000                                 # magnitude of the swimming force [kT/sigma]
variable            condarr equal "v_realtime >= 0.0"             # arrest for some initial time
variable            poff equal "1.0*v_condarr"                    # shrinking reaction initiation probability (0 or 1)
variable            condatoms equal "atoms >= v_maxatoms+2"
variable            pon equal (1-v_condatoms)                     # growing reaction initiation probability (0 or 1)

variable            kon atom ${ron}*${treact}                          # growth probability
variable            kon atom 0.8*${treact}                          
variable            kon atom 0.8*0.1                          
variable            knuc atom ${rnuc}*${treact}                        # nucleation probability
variable            knuc atom 0.1*${treact}                        
variable            knuc atom 0.1*0.1                        
variable            kdis equal ${rdis}*${treact}                          # dissociation probability
variable            kdis equal 1*${treact}                          
variable            kdis equal 1*0.1                          

variable            thyd equal ${tauhyd}/${tstep}                 # hydrolysis time [simulation steps]
variable            thyd equal 80/${tstep}                 
variable            thyd equal 80/0.001                 
variable            rstep equal ${treact}/${tstep}                      # reaction interval [simulation steps]
variable            rstep equal 0.1/${tstep}                      
variable            rstep equal 0.1/0.001                      
variable            run_steps equal ${run_time}/${tstep}          # simulation run time [simulation steps]
variable            run_steps equal 1000/${tstep}          
variable            run_steps equal 1000/0.001          
variable            dump_time equal ${frame_rate}/${tstep}        # dumping interval [simulation steps]
variable            dump_time equal 10/${tstep}        
variable            dump_time equal 10/0.001        

variable            stab_steps equal 1

group               ghosts type 4
2 atoms in group ghosts

special_bonds       lj 1.0 1.0 1.0
Finding 1-2 1-3 1-4 neighbors ...
  special bond factors lj:    1        1        1       
  special bond factors coul:  0        0        0       
     1 = max # of 1-2 neighbors
     0 = max # of 1-3 neighbors
     0 = max # of 1-4 neighbors
    21 = max # of special neighbors
  special bonds CPU = 0.000 seconds
bond_style          harmonic
bond_coeff          1 ${Kbond} 1.0
bond_coeff          1 1000 1.0

angle_style         harmonicchiral2d
angle_coeff         1 ${Kbend} ${dtheta}
angle_coeff         1 800 ${dtheta}
angle_coeff         1 800 1
angle_coeff         2 ${Kobst} 180.0
angle_coeff         2 100 180.0

pair_style          hybrid/overlay zero 1.50 cosine/squared 1.50
pair_coeff          * * cosine/squared 0.00 1.00 1.10
pair_coeff          * * zero 1.50
pair_coeff          1 1 cosine/squared 1.00 1.00 1.00 wca
WARNING: Cosine/squared set to WCA only (cutoff = sigma) (../pair_cosine_squared.cpp:158)
pair_coeff          1 2 cosine/squared 1.00 1.00 1.00 wca
WARNING: Cosine/squared set to WCA only (cutoff = sigma) (../pair_cosine_squared.cpp:158)
pair_coeff          1 3 cosine/squared 1.00 1.00 1.00 wca
WARNING: Cosine/squared set to WCA only (cutoff = sigma) (../pair_cosine_squared.cpp:158)
pair_coeff          2 2 cosine/squared 1.00 1.00 1.00 wca
WARNING: Cosine/squared set to WCA only (cutoff = sigma) (../pair_cosine_squared.cpp:158)
pair_coeff          2 3 cosine/squared 1.00 1.00 1.00 wca
WARNING: Cosine/squared set to WCA only (cutoff = sigma) (../pair_cosine_squared.cpp:158)
pair_coeff          3 3 cosine/squared 1.00 1.00 1.00 wca
WARNING: Cosine/squared set to WCA only (cutoff = sigma) (../pair_cosine_squared.cpp:158)

# Nucleation Reactions_rdis molecular templates
molecule            mPreNucleation Reactions_rdis/pre_Nucleation.txt
Read molecule template mPreNucleation:
  1 molecules
  1 fragments
  2 atoms with max type 4
  1 bonds with max type 1
  0 angles with max type 0
  0 dihedrals with max type 0
  0 impropers with max type 0
molecule            mPostNucleation Reactions_rdis/post_Nucleation.txt
Read molecule template mPostNucleation:
  1 molecules
  1 fragments
  4 atoms with max type 4
  2 bonds with max type 1
  0 angles with max type 0
  0 dihedrals with max type 0
  0 impropers with max type 0

# Growth Reactions_rdis molecular templates
molecule            mPreDimerOn Reactions_rdis/pre_DimerOn.txt
Read molecule template mPreDimerOn:
  1 molecules
  2 fragments
  2 atoms with max type 3
  1 bonds with max type 1
  0 angles with max type 0
  0 dihedrals with max type 0
  0 impropers with max type 0
molecule            mPostDimerOn Reactions_rdis/post_DimerOn.txt
Read molecule template mPostDimerOn:
  1 molecules
  2 fragments
  3 atoms with max type 3
  2 bonds with max type 1
  1 angles with max type 1
  0 dihedrals with max type 0
  0 impropers with max type 0
molecule            mPreTrimerOn Reactions_rdis/pre_TrimerOn.txt
Read molecule template mPreTrimerOn:
  1 molecules
  2 fragments
  3 atoms with max type 3
  2 bonds with max type 1
  1 angles with max type 1
  0 dihedrals with max type 0
  0 impropers with max type 0
molecule            mPostTrimerOn Reactions_rdis/post_TrimerOn.txt
Read molecule template mPostTrimerOn:
  1 molecules
  2 fragments
  4 atoms with max type 3
  3 bonds with max type 1
  2 angles with max type 1
  0 dihedrals with max type 0
  0 impropers with max type 0
molecule            mPreOligomerOn Reactions_rdis/pre_OligomerOn.txt
Read molecule template mPreOligomerOn:
  1 molecules
  2 fragments
  3 atoms with max type 3
  2 bonds with max type 1
  1 angles with max type 1
  0 dihedrals with max type 0
  0 impropers with max type 0
molecule            mPostOligomerOn Reactions_rdis/post_OligomerOn.txt
Read molecule template mPostOligomerOn:
  1 molecules
  2 fragments
  4 atoms with max type 3
  3 bonds with max type 1
  2 angles with max type 1
  0 dihedrals with max type 0
  0 impropers with max type 0

# Shrink Reactions_rdis molecular templates
molecule            mPreDimerOff Reactions_rdis/pre_DimerOff.txt
Read molecule template mPreDimerOff:
  1 molecules
  1 fragments
  2 atoms with max type 3
  1 bonds with max type 1
  0 angles with max type 0
  0 dihedrals with max type 0
  0 impropers with max type 0
molecule            mPostDimerOff Reactions_rdis/post_DimerOff.txt
Read molecule template mPostDimerOff:
  1 molecules
  0 fragments
  2 atoms with max type 3
  0 bonds with max type 0
  0 angles with max type 0
  0 dihedrals with max type 0
  0 impropers with max type 0
molecule            mPreTrimerOff Reactions_rdis/pre_TrimerOff.txt
Read molecule template mPreTrimerOff:
  1 molecules
  1 fragments
  3 atoms with max type 3
  2 bonds with max type 1
  1 angles with max type 1
  0 dihedrals with max type 0
  0 impropers with max type 0
molecule            mPostTrimerOff Reactions_rdis/post_TrimerOff.txt
Read molecule template mPostTrimerOff:
  1 molecules
  0 fragments
  3 atoms with max type 3
  1 bonds with max type 1
  0 angles with max type 0
  0 dihedrals with max type 0
  0 impropers with max type 0
molecule            mPreQuartomerOff Reactions_rdis/pre_QuartomerOff.txt
Read molecule template mPreQuartomerOff:
  1 molecules
  1 fragments
  4 atoms with max type 3
  3 bonds with max type 1
  2 angles with max type 1
  0 dihedrals with max type 0
  0 impropers with max type 0
molecule            mPostQuartomerOff Reactions_rdis/post_QuartomerOff.txt
Read molecule template mPostQuartomerOff:
  1 molecules
  0 fragments
  4 atoms with max type 3
  2 bonds with max type 1
  1 angles with max type 1
  0 dihedrals with max type 0
  0 impropers with max type 0
molecule            mPreOligomerOff Reactions_rdis/pre_OligomerOff.txt
Read molecule template mPreOligomerOff:
  1 molecules
  1 fragments
  4 atoms with max type 2
  3 bonds with max type 1
  2 angles with max type 1
  0 dihedrals with max type 0
  0 impropers with max type 0
molecule            mPostOligomerOff Reactions_rdis/post_OligomerOff.txt
Read molecule template mPostOligomerOff:
  1 molecules
  0 fragments
  4 atoms with max type 2
  2 bonds with max type 1
  1 angles with max type 1
  0 dihedrals with max type 0
  0 impropers with max type 0

variable            vMaskHBefore atom "type==2 || type==3"
group               HeadBefore dynamic all var vMaskHBefore every 1
dynamic group HeadBefore defined
variable            vMaskCBefore atom "type==1"
group               CoreBefore dynamic all var vMaskCBefore every 1
dynamic group CoreBefore defined
variable            vMaskSAZ atom "v_vSA == 0"
fix                 fSAZ all store/state 10 v_vMaskSAZ

fix                 freact all bond/react  stabilization yes AllAtoms 0.1  reset_mol_ids no                         react Nucleation all ${rstep} 0.900000 1.100000 mPreNucleation mPostNucleation Reactions_rdis/map_Nucleation.txt prob v_pon ${seed} stabilize_steps ${stab_steps} modify_create overlap 0.9 modify_create nuc yes                         react DimerOn all ${rstep} 0.900000 1.100000 mPreDimerOn mPostDimerOn Reactions_rdis/map_DimerOn.txt prob v_pon ${seed} stabilize_steps ${stab_steps} modify_create fit 1 modify_create overlap 0.9                         react TrimerOn all ${rstep} 0.900000 1.100000 mPreTrimerOn mPostTrimerOn Reactions_rdis/map_TrimerOn.txt prob v_pon ${seed} stabilize_steps ${stab_steps} modify_create fit 1 modify_create overlap 0.9                         react OligomerOn all ${rstep} 0.900000 1.100000 mPreOligomerOn mPostOligomerOn Reactions_rdis/map_OligomerOn.txt prob v_pon ${seed} stabilize_steps ${stab_steps} modify_create fit 1 modify_create overlap 0.9                         react OligomerOff all ${rstep} 0.900000 1.100000 mPreOligomerOff mPostOligomerOff Reactions_rdis/map_OligomerOff.txt prob v_poff ${seed} stabilize_steps ${stab_steps}                         react QuartomerOff all ${rstep} 0.900000 1.100000 mPreQuartomerOff mPostQuartomerOff Reactions_rdis/map_QuartomerOff.txt prob v_poff ${seed} stabilize_steps ${stab_steps}                         react TrimerOff all ${rstep} 0.900000 1.100000 mPreTrimerOff mPostTrimerOff Reactions_rdis/map_TrimerOff.txt prob v_poff ${seed} stabilize_steps ${stab_steps}                         react DimerOff all ${rstep} 0.900000 1.100000 mPreDimerOff mPostDimerOff Reactions_rdis/map_DimerOff.txt prob v_poff ${seed} stabilize_steps ${stab_steps}
fix                 freact all bond/react  stabilization yes AllAtoms 0.1  reset_mol_ids no                         react Nucleation all 100 0.900000 1.100000 mPreNucleation mPostNucleation Reactions_rdis/map_Nucleation.txt prob v_pon ${seed} stabilize_steps ${stab_steps} modify_create overlap 0.9 modify_create nuc yes                         react DimerOn all ${rstep} 0.900000 1.100000 mPreDimerOn mPostDimerOn Reactions_rdis/map_DimerOn.txt prob v_pon ${seed} stabilize_steps ${stab_steps} modify_create fit 1 modify_create overlap 0.9                         react TrimerOn all ${rstep} 0.900000 1.100000 mPreTrimerOn mPostTrimerOn Reactions_rdis/map_TrimerOn.txt prob v_pon ${seed} stabilize_steps ${stab_steps} modify_create fit 1 modify_create overlap 0.9                         react OligomerOn all ${rstep} 0.900000 1.100000 mPreOligomerOn mPostOligomerOn Reactions_rdis/map_OligomerOn.txt prob v_pon ${seed} stabilize_steps ${stab_steps} modify_create fit 1 modify_create overlap 0.9                         react OligomerOff all ${rstep} 0.900000 1.100000 mPreOligomerOff mPostOligomerOff Reactions_rdis/map_OligomerOff.txt prob v_poff ${seed} stabilize_steps ${stab_steps}                         react QuartomerOff all ${rstep} 0.900000 1.100000 mPreQuartomerOff mPostQuartomerOff Reactions_rdis/map_QuartomerOff.txt prob v_poff ${seed} stabilize_steps ${stab_steps}                         react TrimerOff all ${rstep} 0.900000 1.100000 mPreTrimerOff mPostTrimerOff Reactions_rdis/map_TrimerOff.txt prob v_poff ${seed} stabilize_steps ${stab_steps}                         react DimerOff all ${rstep} 0.900000 1.100000 mPreDimerOff mPostDimerOff Reactions_rdis/map_DimerOff.txt prob v_poff ${seed} stabilize_steps ${stab_steps}
fix                 freact all bond/react  stabilization yes AllAtoms 0.1  reset_mol_ids no                         react Nucleation all 100 0.900000 1.100000 mPreNucleation mPostNucleation Reactions_rdis/map_Nucleation.txt prob v_pon 1234 stabilize_steps ${stab_steps} modify_create overlap 0.9 modify_create nuc yes                         react DimerOn all ${rstep} 0.900000 1.100000 mPreDimerOn mPostDimerOn Reactions_rdis/map_DimerOn.txt prob v_pon ${seed} stabilize_steps ${stab_steps} modify_create fit 1 modify_create overlap 0.9                         react TrimerOn all ${rstep} 0.900000 1.100000 mPreTrimerOn mPostTrimerOn Reactions_rdis/map_TrimerOn.txt prob v_pon ${seed} stabilize_steps ${stab_steps} modify_create fit 1 modify_create overlap 0.9                         react OligomerOn all ${rstep} 0.900000 1.100000 mPreOligomerOn mPostOligomerOn Reactions_rdis/map_OligomerOn.txt prob v_pon ${seed} stabilize_steps ${stab_steps} modify_create fit 1 modify_create overlap 0.9                         react OligomerOff all ${rstep} 0.900000 1.100000 mPreOligomerOff mPostOligomerOff Reactions_rdis/map_OligomerOff.txt prob v_poff ${seed} stabilize_steps ${stab_steps}                         react QuartomerOff all ${rstep} 0.900000 1.100000 mPreQuartomerOff mPostQuartomerOff Reactions_rdis/map_QuartomerOff.txt prob v_poff ${seed} stabilize_steps ${stab_steps}                         react TrimerOff all ${rstep} 0.900000 1.100000 mPreTrimerOff mPostTrimerOff Reactions_rdis/map_TrimerOff.txt prob v_poff ${seed} stabilize_steps ${stab_steps}                         react DimerOff all ${rstep} 0.900000 1.100000 mPreDimerOff mPostDimerOff Reactions_rdis/map_DimerOff.txt prob v_poff ${seed} stabilize_steps ${stab_steps}
fix                 freact all bond/react  stabilization yes AllAtoms 0.1  reset_mol_ids no                         react Nucleation all 100 0.900000 1.100000 mPreNucleation mPostNucleation Reactions_rdis/map_Nucleation.txt prob v_pon 1234 stabilize_steps 1 modify_create overlap 0.9 modify_create nuc yes                         react DimerOn all ${rstep} 0.900000 1.100000 mPreDimerOn mPostDimerOn Reactions_rdis/map_DimerOn.txt prob v_pon ${seed} stabilize_steps ${stab_steps} modify_create fit 1 modify_create overlap 0.9                         react TrimerOn all ${rstep} 0.900000 1.100000 mPreTrimerOn mPostTrimerOn Reactions_rdis/map_TrimerOn.txt prob v_pon ${seed} stabilize_steps ${stab_steps} modify_create fit 1 modify_create overlap 0.9                         react OligomerOn all ${rstep} 0.900000 1.100000 mPreOligomerOn mPostOligomerOn Reactions_rdis/map_OligomerOn.txt prob v_pon ${seed} stabilize_steps ${stab_steps} modify_create fit 1 modify_create overlap 0.9                         react OligomerOff all ${rstep} 0.900000 1.100000 mPreOligomerOff mPostOligomerOff Reactions_rdis/map_OligomerOff.txt prob v_poff ${seed} stabilize_steps ${stab_steps}                         react QuartomerOff all ${rstep} 0.900000 1.100000 mPreQuartomerOff mPostQuartomerOff Reactions_rdis/map_QuartomerOff.txt prob v_poff ${seed} stabilize_steps ${stab_steps}                         react TrimerOff all ${rstep} 0.900000 1.100000 mPreTrimerOff mPostTrimerOff Reactions_rdis/map_TrimerOff.txt prob v_poff ${seed} stabilize_steps ${stab_steps}                         react DimerOff all ${rstep} 0.900000 1.100000 mPreDimerOff mPostDimerOff Reactions_rdis/map_DimerOff.txt prob v_poff ${seed} stabilize_steps ${stab_steps}
fix                 freact all bond/react  stabilization yes AllAtoms 0.1  reset_mol_ids no                         react Nucleation all 100 0.900000 1.100000 mPreNucleation mPostNucleation Reactions_rdis/map_Nucleation.txt prob v_pon 1234 stabilize_steps 1 modify_create overlap 0.9 modify_create nuc yes                         react DimerOn all 100 0.900000 1.100000 mPreDimerOn mPostDimerOn Reactions_rdis/map_DimerOn.txt prob v_pon ${seed} stabilize_steps ${stab_steps} modify_create fit 1 modify_create overlap 0.9                         react TrimerOn all ${rstep} 0.900000 1.100000 mPreTrimerOn mPostTrimerOn Reactions_rdis/map_TrimerOn.txt prob v_pon ${seed} stabilize_steps ${stab_steps} modify_create fit 1 modify_create overlap 0.9                         react OligomerOn all ${rstep} 0.900000 1.100000 mPreOligomerOn mPostOligomerOn Reactions_rdis/map_OligomerOn.txt prob v_pon ${seed} stabilize_steps ${stab_steps} modify_create fit 1 modify_create overlap 0.9                         react OligomerOff all ${rstep} 0.900000 1.100000 mPreOligomerOff mPostOligomerOff Reactions_rdis/map_OligomerOff.txt prob v_poff ${seed} stabilize_steps ${stab_steps}                         react QuartomerOff all ${rstep} 0.900000 1.100000 mPreQuartomerOff mPostQuartomerOff Reactions_rdis/map_QuartomerOff.txt prob v_poff ${seed} stabilize_steps ${stab_steps}                         react TrimerOff all ${rstep} 0.900000 1.100000 mPreTrimerOff mPostTrimerOff Reactions_rdis/map_TrimerOff.txt prob v_poff ${seed} stabilize_steps ${stab_steps}                         react DimerOff all ${rstep} 0.900000 1.100000 mPreDimerOff mPostDimerOff Reactions_rdis/map_DimerOff.txt prob v_poff ${seed} stabilize_steps ${stab_steps}
fix                 freact all bond/react  stabilization yes AllAtoms 0.1  reset_mol_ids no                         react Nucleation all 100 0.900000 1.100000 mPreNucleation mPostNucleation Reactions_rdis/map_Nucleation.txt prob v_pon 1234 stabilize_steps 1 modify_create overlap 0.9 modify_create nuc yes                         react DimerOn all 100 0.900000 1.100000 mPreDimerOn mPostDimerOn Reactions_rdis/map_DimerOn.txt prob v_pon 1234 stabilize_steps ${stab_steps} modify_create fit 1 modify_create overlap 0.9                         react TrimerOn all ${rstep} 0.900000 1.100000 mPreTrimerOn mPostTrimerOn Reactions_rdis/map_TrimerOn.txt prob v_pon ${seed} stabilize_steps ${stab_steps} modify_create fit 1 modify_create overlap 0.9                         react OligomerOn all ${rstep} 0.900000 1.100000 mPreOligomerOn mPostOligomerOn Reactions_rdis/map_OligomerOn.txt prob v_pon ${seed} stabilize_steps ${stab_steps} modify_create fit 1 modify_create overlap 0.9                         react OligomerOff all ${rstep} 0.900000 1.100000 mPreOligomerOff mPostOligomerOff Reactions_rdis/map_OligomerOff.txt prob v_poff ${seed} stabilize_steps ${stab_steps}                         react QuartomerOff all ${rstep} 0.900000 1.100000 mPreQuartomerOff mPostQuartomerOff Reactions_rdis/map_QuartomerOff.txt prob v_poff ${seed} stabilize_steps ${stab_steps}                         react TrimerOff all ${rstep} 0.900000 1.100000 mPreTrimerOff mPostTrimerOff Reactions_rdis/map_TrimerOff.txt prob v_poff ${seed} stabilize_steps ${stab_steps}                         react DimerOff all ${rstep} 0.900000 1.100000 mPreDimerOff mPostDimerOff Reactions_rdis/map_DimerOff.txt prob v_poff ${seed} stabilize_steps ${stab_steps}
fix                 freact all bond/react  stabilization yes AllAtoms 0.1  reset_mol_ids no                         react Nucleation all 100 0.900000 1.100000 mPreNucleation mPostNucleation Reactions_rdis/map_Nucleation.txt prob v_pon 1234 stabilize_steps 1 modify_create overlap 0.9 modify_create nuc yes                         react DimerOn all 100 0.900000 1.100000 mPreDimerOn mPostDimerOn Reactions_rdis/map_DimerOn.txt prob v_pon 1234 stabilize_steps 1 modify_create fit 1 modify_create overlap 0.9                         react TrimerOn all ${rstep} 0.900000 1.100000 mPreTrimerOn mPostTrimerOn Reactions_rdis/map_TrimerOn.txt prob v_pon ${seed} stabilize_steps ${stab_steps} modify_create fit 1 modify_create overlap 0.9                         react OligomerOn all ${rstep} 0.900000 1.100000 mPreOligomerOn mPostOligomerOn Reactions_rdis/map_OligomerOn.txt prob v_pon ${seed} stabilize_steps ${stab_steps} modify_create fit 1 modify_create overlap 0.9                         react OligomerOff all ${rstep} 0.900000 1.100000 mPreOligomerOff mPostOligomerOff Reactions_rdis/map_OligomerOff.txt prob v_poff ${seed} stabilize_steps ${stab_steps}                         react QuartomerOff all ${rstep} 0.900000 1.100000 mPreQuartomerOff mPostQuartomerOff Reactions_rdis/map_QuartomerOff.txt prob v_poff ${seed} stabilize_steps ${stab_steps}                         react TrimerOff all ${rstep} 0.900000 1.100000 mPreTrimerOff mPostTrimerOff Reactions_rdis/map_TrimerOff.txt prob v_poff ${seed} stabilize_steps ${stab_steps}                         react DimerOff all ${rstep} 0.900000 1.100000 mPreDimerOff mPostDimerOff Reactions_rdis/map_DimerOff.txt prob v_poff ${seed} stabilize_steps ${stab_steps}
fix                 freact all bond/react  stabilization yes AllAtoms 0.1  reset_mol_ids no                         react Nucleation all 100 0.900000 1.100000 mPreNucleation mPostNucleation Reactions_rdis/map_Nucleation.txt prob v_pon 1234 stabilize_steps 1 modify_create overlap 0.9 modify_create nuc yes                         react DimerOn all 100 0.900000 1.100000 mPreDimerOn mPostDimerOn Reactions_rdis/map_DimerOn.txt prob v_pon 1234 stabilize_steps 1 modify_create fit 1 modify_create overlap 0.9                         react TrimerOn all 100 0.900000 1.100000 mPreTrimerOn mPostTrimerOn Reactions_rdis/map_TrimerOn.txt prob v_pon ${seed} stabilize_steps ${stab_steps} modify_create fit 1 modify_create overlap 0.9                         react OligomerOn all ${rstep} 0.900000 1.100000 mPreOligomerOn mPostOligomerOn Reactions_rdis/map_OligomerOn.txt prob v_pon ${seed} stabilize_steps ${stab_steps} modify_create fit 1 modify_create overlap 0.9                         react OligomerOff all ${rstep} 0.900000 1.100000 mPreOligomerOff mPostOligomerOff Reactions_rdis/map_OligomerOff.txt prob v_poff ${seed} stabilize_steps ${stab_steps}                         react QuartomerOff all ${rstep} 0.900000 1.100000 mPreQuartomerOff mPostQuartomerOff Reactions_rdis/map_QuartomerOff.txt prob v_poff ${seed} stabilize_steps ${stab_steps}                         react TrimerOff all ${rstep} 0.900000 1.100000 mPreTrimerOff mPostTrimerOff Reactions_rdis/map_TrimerOff.txt prob v_poff ${seed} stabilize_steps ${stab_steps}                         react DimerOff all ${rstep} 0.900000 1.100000 mPreDimerOff mPostDimerOff Reactions_rdis/map_DimerOff.txt prob v_poff ${seed} stabilize_steps ${stab_steps}
fix                 freact all bond/react  stabilization yes AllAtoms 0.1  reset_mol_ids no                         react Nucleation all 100 0.900000 1.100000 mPreNucleation mPostNucleation Reactions_rdis/map_Nucleation.txt prob v_pon 1234 stabilize_steps 1 modify_create overlap 0.9 modify_create nuc yes                         react DimerOn all 100 0.900000 1.100000 mPreDimerOn mPostDimerOn Reactions_rdis/map_DimerOn.txt prob v_pon 1234 stabilize_steps 1 modify_create fit 1 modify_create overlap 0.9                         react TrimerOn all 100 0.900000 1.100000 mPreTrimerOn mPostTrimerOn Reactions_rdis/map_TrimerOn.txt prob v_pon 1234 stabilize_steps ${stab_steps} modify_create fit 1 modify_create overlap 0.9                         react OligomerOn all ${rstep} 0.900000 1.100000 mPreOligomerOn mPostOligomerOn Reactions_rdis/map_OligomerOn.txt prob v_pon ${seed} stabilize_steps ${stab_steps} modify_create fit 1 modify_create overlap 0.9                         react OligomerOff all ${rstep} 0.900000 1.100000 mPreOligomerOff mPostOligomerOff Reactions_rdis/map_OligomerOff.txt prob v_poff ${seed} stabilize_steps ${stab_steps}                         react QuartomerOff all ${rstep} 0.900000 1.100000 mPreQuartomerOff mPostQuartomerOff Reactions_rdis/map_QuartomerOff.txt prob v_poff ${seed} stabilize_steps ${stab_steps}                         react TrimerOff all ${rstep} 0.900000 1.100000 mPreTrimerOff mPostTrimerOff Reactions_rdis/map_TrimerOff.txt prob v_poff ${seed} stabilize_steps ${stab_steps}                         react DimerOff all ${rstep} 0.900000 1.100000 mPreDimerOff mPostDimerOff Reactions_rdis/map_DimerOff.txt prob v_poff ${seed} stabilize_steps ${stab_steps}
fix                 freact all bond/react  stabilization yes AllAtoms 0.1  reset_mol_ids no                         react Nucleation all 100 0.900000 1.100000 mPreNucleation mPostNucleation Reactions_rdis/map_Nucleation.txt prob v_pon 1234 stabilize_steps 1 modify_create overlap 0.9 modify_create nuc yes                         react DimerOn all 100 0.900000 1.100000 mPreDimerOn mPostDimerOn Reactions_rdis/map_DimerOn.txt prob v_pon 1234 stabilize_steps 1 modify_create fit 1 modify_create overlap 0.9                         react TrimerOn all 100 0.900000 1.100000 mPreTrimerOn mPostTrimerOn Reactions_rdis/map_TrimerOn.txt prob v_pon 1234 stabilize_steps 1 modify_create fit 1 modify_create overlap 0.9                         react OligomerOn all ${rstep} 0.900000 1.100000 mPreOligomerOn mPostOligomerOn Reactions_rdis/map_OligomerOn.txt prob v_pon ${seed} stabilize_steps ${stab_steps} modify_create fit 1 modify_create overlap 0.9                         react OligomerOff all ${rstep} 0.900000 1.100000 mPreOligomerOff mPostOligomerOff Reactions_rdis/map_OligomerOff.txt prob v_poff ${seed} stabilize_steps ${stab_steps}                         react QuartomerOff all ${rstep} 0.900000 1.100000 mPreQuartomerOff mPostQuartomerOff Reactions_rdis/map_QuartomerOff.txt prob v_poff ${seed} stabilize_steps ${stab_steps}                         react TrimerOff all ${rstep} 0.900000 1.100000 mPreTrimerOff mPostTrimerOff Reactions_rdis/map_TrimerOff.txt prob v_poff ${seed} stabilize_steps ${stab_steps}                         react DimerOff all ${rstep} 0.900000 1.100000 mPreDimerOff mPostDimerOff Reactions_rdis/map_DimerOff.txt prob v_poff ${seed} stabilize_steps ${stab_steps}
fix                 freact all bond/react  stabilization yes AllAtoms 0.1  reset_mol_ids no                         react Nucleation all 100 0.900000 1.100000 mPreNucleation mPostNucleation Reactions_rdis/map_Nucleation.txt prob v_pon 1234 stabilize_steps 1 modify_create overlap 0.9 modify_create nuc yes                         react DimerOn all 100 0.900000 1.100000 mPreDimerOn mPostDimerOn Reactions_rdis/map_DimerOn.txt prob v_pon 1234 stabilize_steps 1 modify_create fit 1 modify_create overlap 0.9                         react TrimerOn all 100 0.900000 1.100000 mPreTrimerOn mPostTrimerOn Reactions_rdis/map_TrimerOn.txt prob v_pon 1234 stabilize_steps 1 modify_create fit 1 modify_create overlap 0.9                         react OligomerOn all 100 0.900000 1.100000 mPreOligomerOn mPostOligomerOn Reactions_rdis/map_OligomerOn.txt prob v_pon ${seed} stabilize_steps ${stab_steps} modify_create fit 1 modify_create overlap 0.9                         react OligomerOff all ${rstep} 0.900000 1.100000 mPreOligomerOff mPostOligomerOff Reactions_rdis/map_OligomerOff.txt prob v_poff ${seed} stabilize_steps ${stab_steps}                         react QuartomerOff all ${rstep} 0.900000 1.100000 mPreQuartomerOff mPostQuartomerOff Reactions_rdis/map_QuartomerOff.txt prob v_poff ${seed} stabilize_steps ${stab_steps}                         react TrimerOff all ${rstep} 0.900000 1.100000 mPreTrimerOff mPostTrimerOff Reactions_rdis/map_TrimerOff.txt prob v_poff ${seed} stabilize_steps ${stab_steps}                         react DimerOff all ${rstep} 0.900000 1.100000 mPreDimerOff mPostDimerOff Reactions_rdis/map_DimerOff.txt prob v_poff ${seed} stabilize_steps ${stab_steps}
fix                 freact all bond/react  stabilization yes AllAtoms 0.1  reset_mol_ids no                         react Nucleation all 100 0.900000 1.100000 mPreNucleation mPostNucleation Reactions_rdis/map_Nucleation.txt prob v_pon 1234 stabilize_steps 1 modify_create overlap 0.9 modify_create nuc yes                         react DimerOn all 100 0.900000 1.100000 mPreDimerOn mPostDimerOn Reactions_rdis/map_DimerOn.txt prob v_pon 1234 stabilize_steps 1 modify_create fit 1 modify_create overlap 0.9                         react TrimerOn all 100 0.900000 1.100000 mPreTrimerOn mPostTrimerOn Reactions_rdis/map_TrimerOn.txt prob v_pon 1234 stabilize_steps 1 modify_create fit 1 modify_create overlap 0.9                         react OligomerOn all 100 0.900000 1.100000 mPreOligomerOn mPostOligomerOn Reactions_rdis/map_OligomerOn.txt prob v_pon 1234 stabilize_steps ${stab_steps} modify_create fit 1 modify_create overlap 0.9                         react OligomerOff all ${rstep} 0.900000 1.100000 mPreOligomerOff mPostOligomerOff Reactions_rdis/map_OligomerOff.txt prob v_poff ${seed} stabilize_steps ${stab_steps}                         react QuartomerOff all ${rstep} 0.900000 1.100000 mPreQuartomerOff mPostQuartomerOff Reactions_rdis/map_QuartomerOff.txt prob v_poff ${seed} stabilize_steps ${stab_steps}                         react TrimerOff all ${rstep} 0.900000 1.100000 mPreTrimerOff mPostTrimerOff Reactions_rdis/map_TrimerOff.txt prob v_poff ${seed} stabilize_steps ${stab_steps}                         react DimerOff all ${rstep} 0.900000 1.100000 mPreDimerOff mPostDimerOff Reactions_rdis/map_DimerOff.txt prob v_poff ${seed} stabilize_steps ${stab_steps}
fix                 freact all bond/react  stabilization yes AllAtoms 0.1  reset_mol_ids no                         react Nucleation all 100 0.900000 1.100000 mPreNucleation mPostNucleation Reactions_rdis/map_Nucleation.txt prob v_pon 1234 stabilize_steps 1 modify_create overlap 0.9 modify_create nuc yes                         react DimerOn all 100 0.900000 1.100000 mPreDimerOn mPostDimerOn Reactions_rdis/map_DimerOn.txt prob v_pon 1234 stabilize_steps 1 modify_create fit 1 modify_create overlap 0.9                         react TrimerOn all 100 0.900000 1.100000 mPreTrimerOn mPostTrimerOn Reactions_rdis/map_TrimerOn.txt prob v_pon 1234 stabilize_steps 1 modify_create fit 1 modify_create overlap 0.9                         react OligomerOn all 100 0.900000 1.100000 mPreOligomerOn mPostOligomerOn Reactions_rdis/map_OligomerOn.txt prob v_pon 1234 stabilize_steps 1 modify_create fit 1 modify_create overlap 0.9                         react OligomerOff all ${rstep} 0.900000 1.100000 mPreOligomerOff mPostOligomerOff Reactions_rdis/map_OligomerOff.txt prob v_poff ${seed} stabilize_steps ${stab_steps}                         react QuartomerOff all ${rstep} 0.900000 1.100000 mPreQuartomerOff mPostQuartomerOff Reactions_rdis/map_QuartomerOff.txt prob v_poff ${seed} stabilize_steps ${stab_steps}                         react TrimerOff all ${rstep} 0.900000 1.100000 mPreTrimerOff mPostTrimerOff Reactions_rdis/map_TrimerOff.txt prob v_poff ${seed} stabilize_steps ${stab_steps}                         react DimerOff all ${rstep} 0.900000 1.100000 mPreDimerOff mPostDimerOff Reactions_rdis/map_DimerOff.txt prob v_poff ${seed} stabilize_steps ${stab_steps}
fix                 freact all bond/react  stabilization yes AllAtoms 0.1  reset_mol_ids no                         react Nucleation all 100 0.900000 1.100000 mPreNucleation mPostNucleation Reactions_rdis/map_Nucleation.txt prob v_pon 1234 stabilize_steps 1 modify_create overlap 0.9 modify_create nuc yes                         react DimerOn all 100 0.900000 1.100000 mPreDimerOn mPostDimerOn Reactions_rdis/map_DimerOn.txt prob v_pon 1234 stabilize_steps 1 modify_create fit 1 modify_create overlap 0.9                         react TrimerOn all 100 0.900000 1.100000 mPreTrimerOn mPostTrimerOn Reactions_rdis/map_TrimerOn.txt prob v_pon 1234 stabilize_steps 1 modify_create fit 1 modify_create overlap 0.9                         react OligomerOn all 100 0.900000 1.100000 mPreOligomerOn mPostOligomerOn Reactions_rdis/map_OligomerOn.txt prob v_pon 1234 stabilize_steps 1 modify_create fit 1 modify_create overlap 0.9                         react OligomerOff all 100 0.900000 1.100000 mPreOligomerOff mPostOligomerOff Reactions_rdis/map_OligomerOff.txt prob v_poff ${seed} stabilize_steps ${stab_steps}                         react QuartomerOff all ${rstep} 0.900000 1.100000 mPreQuartomerOff mPostQuartomerOff Reactions_rdis/map_QuartomerOff.txt prob v_poff ${seed} stabilize_steps ${stab_steps}                         react TrimerOff all ${rstep} 0.900000 1.100000 mPreTrimerOff mPostTrimerOff Reactions_rdis/map_TrimerOff.txt prob v_poff ${seed} stabilize_steps ${stab_steps}                         react DimerOff all ${rstep} 0.900000 1.100000 mPreDimerOff mPostDimerOff Reactions_rdis/map_DimerOff.txt prob v_poff ${seed} stabilize_steps ${stab_steps}
fix                 freact all bond/react  stabilization yes AllAtoms 0.1  reset_mol_ids no                         react Nucleation all 100 0.900000 1.100000 mPreNucleation mPostNucleation Reactions_rdis/map_Nucleation.txt prob v_pon 1234 stabilize_steps 1 modify_create overlap 0.9 modify_create nuc yes                         react DimerOn all 100 0.900000 1.100000 mPreDimerOn mPostDimerOn Reactions_rdis/map_DimerOn.txt prob v_pon 1234 stabilize_steps 1 modify_create fit 1 modify_create overlap 0.9                         react TrimerOn all 100 0.900000 1.100000 mPreTrimerOn mPostTrimerOn Reactions_rdis/map_TrimerOn.txt prob v_pon 1234 stabilize_steps 1 modify_create fit 1 modify_create overlap 0.9                         react OligomerOn all 100 0.900000 1.100000 mPreOligomerOn mPostOligomerOn Reactions_rdis/map_OligomerOn.txt prob v_pon 1234 stabilize_steps 1 modify_create fit 1 modify_create overlap 0.9                         react OligomerOff all 100 0.900000 1.100000 mPreOligomerOff mPostOligomerOff Reactions_rdis/map_OligomerOff.txt prob v_poff 1234 stabilize_steps ${stab_steps}                         react QuartomerOff all ${rstep} 0.900000 1.100000 mPreQuartomerOff mPostQuartomerOff Reactions_rdis/map_QuartomerOff.txt prob v_poff ${seed} stabilize_steps ${stab_steps}                         react TrimerOff all ${rstep} 0.900000 1.100000 mPreTrimerOff mPostTrimerOff Reactions_rdis/map_TrimerOff.txt prob v_poff ${seed} stabilize_steps ${stab_steps}                         react DimerOff all ${rstep} 0.900000 1.100000 mPreDimerOff mPostDimerOff Reactions_rdis/map_DimerOff.txt prob v_poff ${seed} stabilize_steps ${stab_steps}
fix                 freact all bond/react  stabilization yes AllAtoms 0.1  reset_mol_ids no                         react Nucleation all 100 0.900000 1.100000 mPreNucleation mPostNucleation Reactions_rdis/map_Nucleation.txt prob v_pon 1234 stabilize_steps 1 modify_create overlap 0.9 modify_create nuc yes                         react DimerOn all 100 0.900000 1.100000 mPreDimerOn mPostDimerOn Reactions_rdis/map_DimerOn.txt prob v_pon 1234 stabilize_steps 1 modify_create fit 1 modify_create overlap 0.9                         react TrimerOn all 100 0.900000 1.100000 mPreTrimerOn mPostTrimerOn Reactions_rdis/map_TrimerOn.txt prob v_pon 1234 stabilize_steps 1 modify_create fit 1 modify_create overlap 0.9                         react OligomerOn all 100 0.900000 1.100000 mPreOligomerOn mPostOligomerOn Reactions_rdis/map_OligomerOn.txt prob v_pon 1234 stabilize_steps 1 modify_create fit 1 modify_create overlap 0.9                         react OligomerOff all 100 0.900000 1.100000 mPreOligomerOff mPostOligomerOff Reactions_rdis/map_OligomerOff.txt prob v_poff 1234 stabilize_steps 1                         react QuartomerOff all ${rstep} 0.900000 1.100000 mPreQuartomerOff mPostQuartomerOff Reactions_rdis/map_QuartomerOff.txt prob v_poff ${seed} stabilize_steps ${stab_steps}                         react TrimerOff all ${rstep} 0.900000 1.100000 mPreTrimerOff mPostTrimerOff Reactions_rdis/map_TrimerOff.txt prob v_poff ${seed} stabilize_steps ${stab_steps}                         react DimerOff all ${rstep} 0.900000 1.100000 mPreDimerOff mPostDimerOff Reactions_rdis/map_DimerOff.txt prob v_poff ${seed} stabilize_steps ${stab_steps}
fix                 freact all bond/react  stabilization yes AllAtoms 0.1  reset_mol_ids no                         react Nucleation all 100 0.900000 1.100000 mPreNucleation mPostNucleation Reactions_rdis/map_Nucleation.txt prob v_pon 1234 stabilize_steps 1 modify_create overlap 0.9 modify_create nuc yes                         react DimerOn all 100 0.900000 1.100000 mPreDimerOn mPostDimerOn Reactions_rdis/map_DimerOn.txt prob v_pon 1234 stabilize_steps 1 modify_create fit 1 modify_create overlap 0.9                         react TrimerOn all 100 0.900000 1.100000 mPreTrimerOn mPostTrimerOn Reactions_rdis/map_TrimerOn.txt prob v_pon 1234 stabilize_steps 1 modify_create fit 1 modify_create overlap 0.9                         react OligomerOn all 100 0.900000 1.100000 mPreOligomerOn mPostOligomerOn Reactions_rdis/map_OligomerOn.txt prob v_pon 1234 stabilize_steps 1 modify_create fit 1 modify_create overlap 0.9                         react OligomerOff all 100 0.900000 1.100000 mPreOligomerOff mPostOligomerOff Reactions_rdis/map_OligomerOff.txt prob v_poff 1234 stabilize_steps 1                         react QuartomerOff all 100 0.900000 1.100000 mPreQuartomerOff mPostQuartomerOff Reactions_rdis/map_QuartomerOff.txt prob v_poff ${seed} stabilize_steps ${stab_steps}                         react TrimerOff all ${rstep} 0.900000 1.100000 mPreTrimerOff mPostTrimerOff Reactions_rdis/map_TrimerOff.txt prob v_poff ${seed} stabilize_steps ${stab_steps}                         react DimerOff all ${rstep} 0.900000 1.100000 mPreDimerOff mPostDimerOff Reactions_rdis/map_DimerOff.txt prob v_poff ${seed} stabilize_steps ${stab_steps}
fix                 freact all bond/react  stabilization yes AllAtoms 0.1  reset_mol_ids no                         react Nucleation all 100 0.900000 1.100000 mPreNucleation mPostNucleation Reactions_rdis/map_Nucleation.txt prob v_pon 1234 stabilize_steps 1 modify_create overlap 0.9 modify_create nuc yes                         react DimerOn all 100 0.900000 1.100000 mPreDimerOn mPostDimerOn Reactions_rdis/map_DimerOn.txt prob v_pon 1234 stabilize_steps 1 modify_create fit 1 modify_create overlap 0.9                         react TrimerOn all 100 0.900000 1.100000 mPreTrimerOn mPostTrimerOn Reactions_rdis/map_TrimerOn.txt prob v_pon 1234 stabilize_steps 1 modify_create fit 1 modify_create overlap 0.9                         react OligomerOn all 100 0.900000 1.100000 mPreOligomerOn mPostOligomerOn Reactions_rdis/map_OligomerOn.txt prob v_pon 1234 stabilize_steps 1 modify_create fit 1 modify_create overlap 0.9                         react OligomerOff all 100 0.900000 1.100000 mPreOligomerOff mPostOligomerOff Reactions_rdis/map_OligomerOff.txt prob v_poff 1234 stabilize_steps 1                         react QuartomerOff all 100 0.900000 1.100000 mPreQuartomerOff mPostQuartomerOff Reactions_rdis/map_QuartomerOff.txt prob v_poff 1234 stabilize_steps ${stab_steps}                         react TrimerOff all ${rstep} 0.900000 1.100000 mPreTrimerOff mPostTrimerOff Reactions_rdis/map_TrimerOff.txt prob v_poff ${seed} stabilize_steps ${stab_steps}                         react DimerOff all ${rstep} 0.900000 1.100000 mPreDimerOff mPostDimerOff Reactions_rdis/map_DimerOff.txt prob v_poff ${seed} stabilize_steps ${stab_steps}
fix                 freact all bond/react  stabilization yes AllAtoms 0.1  reset_mol_ids no                         react Nucleation all 100 0.900000 1.100000 mPreNucleation mPostNucleation Reactions_rdis/map_Nucleation.txt prob v_pon 1234 stabilize_steps 1 modify_create overlap 0.9 modify_create nuc yes                         react DimerOn all 100 0.900000 1.100000 mPreDimerOn mPostDimerOn Reactions_rdis/map_DimerOn.txt prob v_pon 1234 stabilize_steps 1 modify_create fit 1 modify_create overlap 0.9                         react TrimerOn all 100 0.900000 1.100000 mPreTrimerOn mPostTrimerOn Reactions_rdis/map_TrimerOn.txt prob v_pon 1234 stabilize_steps 1 modify_create fit 1 modify_create overlap 0.9                         react OligomerOn all 100 0.900000 1.100000 mPreOligomerOn mPostOligomerOn Reactions_rdis/map_OligomerOn.txt prob v_pon 1234 stabilize_steps 1 modify_create fit 1 modify_create overlap 0.9                         react OligomerOff all 100 0.900000 1.100000 mPreOligomerOff mPostOligomerOff Reactions_rdis/map_OligomerOff.txt prob v_poff 1234 stabilize_steps 1                         react QuartomerOff all 100 0.900000 1.100000 mPreQuartomerOff mPostQuartomerOff Reactions_rdis/map_QuartomerOff.txt prob v_poff 1234 stabilize_steps 1                         react TrimerOff all ${rstep} 0.900000 1.100000 mPreTrimerOff mPostTrimerOff Reactions_rdis/map_TrimerOff.txt prob v_poff ${seed} stabilize_steps ${stab_steps}                         react DimerOff all ${rstep} 0.900000 1.100000 mPreDimerOff mPostDimerOff Reactions_rdis/map_DimerOff.txt prob v_poff ${seed} stabilize_steps ${stab_steps}
fix                 freact all bond/react  stabilization yes AllAtoms 0.1  reset_mol_ids no                         react Nucleation all 100 0.900000 1.100000 mPreNucleation mPostNucleation Reactions_rdis/map_Nucleation.txt prob v_pon 1234 stabilize_steps 1 modify_create overlap 0.9 modify_create nuc yes                         react DimerOn all 100 0.900000 1.100000 mPreDimerOn mPostDimerOn Reactions_rdis/map_DimerOn.txt prob v_pon 1234 stabilize_steps 1 modify_create fit 1 modify_create overlap 0.9                         react TrimerOn all 100 0.900000 1.100000 mPreTrimerOn mPostTrimerOn Reactions_rdis/map_TrimerOn.txt prob v_pon 1234 stabilize_steps 1 modify_create fit 1 modify_create overlap 0.9                         react OligomerOn all 100 0.900000 1.100000 mPreOligomerOn mPostOligomerOn Reactions_rdis/map_OligomerOn.txt prob v_pon 1234 stabilize_steps 1 modify_create fit 1 modify_create overlap 0.9                         react OligomerOff all 100 0.900000 1.100000 mPreOligomerOff mPostOligomerOff Reactions_rdis/map_OligomerOff.txt prob v_poff 1234 stabilize_steps 1                         react QuartomerOff all 100 0.900000 1.100000 mPreQuartomerOff mPostQuartomerOff Reactions_rdis/map_QuartomerOff.txt prob v_poff 1234 stabilize_steps 1                         react TrimerOff all 100 0.900000 1.100000 mPreTrimerOff mPostTrimerOff Reactions_rdis/map_TrimerOff.txt prob v_poff ${seed} stabilize_steps ${stab_steps}                         react DimerOff all ${rstep} 0.900000 1.100000 mPreDimerOff mPostDimerOff Reactions_rdis/map_DimerOff.txt prob v_poff ${seed} stabilize_steps ${stab_steps}
fix                 freact all bond/react  stabilization yes AllAtoms 0.1  reset_mol_ids no                         react Nucleation all 100 0.900000 1.100000 mPreNucleation mPostNucleation Reactions_rdis/map_Nucleation.txt prob v_pon 1234 stabilize_steps 1 modify_create overlap 0.9 modify_create nuc yes                         react DimerOn all 100 0.900000 1.100000 mPreDimerOn mPostDimerOn Reactions_rdis/map_DimerOn.txt prob v_pon 1234 stabilize_steps 1 modify_create fit 1 modify_create overlap 0.9                         react TrimerOn all 100 0.900000 1.100000 mPreTrimerOn mPostTrimerOn Reactions_rdis/map_TrimerOn.txt prob v_pon 1234 stabilize_steps 1 modify_create fit 1 modify_create overlap 0.9                         react OligomerOn all 100 0.900000 1.100000 mPreOligomerOn mPostOligomerOn Reactions_rdis/map_OligomerOn.txt prob v_pon 1234 stabilize_steps 1 modify_create fit 1 modify_create overlap 0.9                         react OligomerOff all 100 0.900000 1.100000 mPreOligomerOff mPostOligomerOff Reactions_rdis/map_OligomerOff.txt prob v_poff 1234 stabilize_steps 1                         react QuartomerOff all 100 0.900000 1.100000 mPreQuartomerOff mPostQuartomerOff Reactions_rdis/map_QuartomerOff.txt prob v_poff 1234 stabilize_steps 1                         react TrimerOff all 100 0.900000 1.100000 mPreTrimerOff mPostTrimerOff Reactions_rdis/map_TrimerOff.txt prob v_poff 1234 stabilize_steps ${stab_steps}                         react DimerOff all ${rstep} 0.900000 1.100000 mPreDimerOff mPostDimerOff Reactions_rdis/map_DimerOff.txt prob v_poff ${seed} stabilize_steps ${stab_steps}
fix                 freact all bond/react  stabilization yes AllAtoms 0.1  reset_mol_ids no                         react Nucleation all 100 0.900000 1.100000 mPreNucleation mPostNucleation Reactions_rdis/map_Nucleation.txt prob v_pon 1234 stabilize_steps 1 modify_create overlap 0.9 modify_create nuc yes                         react DimerOn all 100 0.900000 1.100000 mPreDimerOn mPostDimerOn Reactions_rdis/map_DimerOn.txt prob v_pon 1234 stabilize_steps 1 modify_create fit 1 modify_create overlap 0.9                         react TrimerOn all 100 0.900000 1.100000 mPreTrimerOn mPostTrimerOn Reactions_rdis/map_TrimerOn.txt prob v_pon 1234 stabilize_steps 1 modify_create fit 1 modify_create overlap 0.9                         react OligomerOn all 100 0.900000 1.100000 mPreOligomerOn mPostOligomerOn Reactions_rdis/map_OligomerOn.txt prob v_pon 1234 stabilize_steps 1 modify_create fit 1 modify_create overlap 0.9                         react OligomerOff all 100 0.900000 1.100000 mPreOligomerOff mPostOligomerOff Reactions_rdis/map_OligomerOff.txt prob v_poff 1234 stabilize_steps 1                         react QuartomerOff all 100 0.900000 1.100000 mPreQuartomerOff mPostQuartomerOff Reactions_rdis/map_QuartomerOff.txt prob v_poff 1234 stabilize_steps 1                         react TrimerOff all 100 0.900000 1.100000 mPreTrimerOff mPostTrimerOff Reactions_rdis/map_TrimerOff.txt prob v_poff 1234 stabilize_steps 1                         react DimerOff all ${rstep} 0.900000 1.100000 mPreDimerOff mPostDimerOff Reactions_rdis/map_DimerOff.txt prob v_poff ${seed} stabilize_steps ${stab_steps}
fix                 freact all bond/react  stabilization yes AllAtoms 0.1  reset_mol_ids no                         react Nucleation all 100 0.900000 1.100000 mPreNucleation mPostNucleation Reactions_rdis/map_Nucleation.txt prob v_pon 1234 stabilize_steps 1 modify_create overlap 0.9 modify_create nuc yes                         react DimerOn all 100 0.900000 1.100000 mPreDimerOn mPostDimerOn Reactions_rdis/map_DimerOn.txt prob v_pon 1234 stabilize_steps 1 modify_create fit 1 modify_create overlap 0.9                         react TrimerOn all 100 0.900000 1.100000 mPreTrimerOn mPostTrimerOn Reactions_rdis/map_TrimerOn.txt prob v_pon 1234 stabilize_steps 1 modify_create fit 1 modify_create overlap 0.9                         react OligomerOn all 100 0.900000 1.100000 mPreOligomerOn mPostOligomerOn Reactions_rdis/map_OligomerOn.txt prob v_pon 1234 stabilize_steps 1 modify_create fit 1 modify_create overlap 0.9                         react OligomerOff all 100 0.900000 1.100000 mPreOligomerOff mPostOligomerOff Reactions_rdis/map_OligomerOff.txt prob v_poff 1234 stabilize_steps 1                         react QuartomerOff all 100 0.900000 1.100000 mPreQuartomerOff mPostQuartomerOff Reactions_rdis/map_QuartomerOff.txt prob v_poff 1234 stabilize_steps 1                         react TrimerOff all 100 0.900000 1.100000 mPreTrimerOff mPostTrimerOff Reactions_rdis/map_TrimerOff.txt prob v_poff 1234 stabilize_steps 1                         react DimerOff all 100 0.900000 1.100000 mPreDimerOff mPostDimerOff Reactions_rdis/map_DimerOff.txt prob v_poff ${seed} stabilize_steps ${stab_steps}
fix                 freact all bond/react  stabilization yes AllAtoms 0.1  reset_mol_ids no                         react Nucleation all 100 0.900000 1.100000 mPreNucleation mPostNucleation Reactions_rdis/map_Nucleation.txt prob v_pon 1234 stabilize_steps 1 modify_create overlap 0.9 modify_create nuc yes                         react DimerOn all 100 0.900000 1.100000 mPreDimerOn mPostDimerOn Reactions_rdis/map_DimerOn.txt prob v_pon 1234 stabilize_steps 1 modify_create fit 1 modify_create overlap 0.9                         react TrimerOn all 100 0.900000 1.100000 mPreTrimerOn mPostTrimerOn Reactions_rdis/map_TrimerOn.txt prob v_pon 1234 stabilize_steps 1 modify_create fit 1 modify_create overlap 0.9                         react OligomerOn all 100 0.900000 1.100000 mPreOligomerOn mPostOligomerOn Reactions_rdis/map_OligomerOn.txt prob v_pon 1234 stabilize_steps 1 modify_create fit 1 modify_create overlap 0.9                         react OligomerOff all 100 0.900000 1.100000 mPreOligomerOff mPostOligomerOff Reactions_rdis/map_OligomerOff.txt prob v_poff 1234 stabilize_steps 1                         react QuartomerOff all 100 0.900000 1.100000 mPreQuartomerOff mPostQuartomerOff Reactions_rdis/map_QuartomerOff.txt prob v_poff 1234 stabilize_steps 1                         react TrimerOff all 100 0.900000 1.100000 mPreTrimerOff mPostTrimerOff Reactions_rdis/map_TrimerOff.txt prob v_poff 1234 stabilize_steps 1                         react DimerOff all 100 0.900000 1.100000 mPreDimerOff mPostDimerOff Reactions_rdis/map_DimerOff.txt prob v_poff 1234 stabilize_steps ${stab_steps}
fix                 freact all bond/react  stabilization yes AllAtoms 0.1  reset_mol_ids no                         react Nucleation all 100 0.900000 1.100000 mPreNucleation mPostNucleation Reactions_rdis/map_Nucleation.txt prob v_pon 1234 stabilize_steps 1 modify_create overlap 0.9 modify_create nuc yes                         react DimerOn all 100 0.900000 1.100000 mPreDimerOn mPostDimerOn Reactions_rdis/map_DimerOn.txt prob v_pon 1234 stabilize_steps 1 modify_create fit 1 modify_create overlap 0.9                         react TrimerOn all 100 0.900000 1.100000 mPreTrimerOn mPostTrimerOn Reactions_rdis/map_TrimerOn.txt prob v_pon 1234 stabilize_steps 1 modify_create fit 1 modify_create overlap 0.9                         react OligomerOn all 100 0.900000 1.100000 mPreOligomerOn mPostOligomerOn Reactions_rdis/map_OligomerOn.txt prob v_pon 1234 stabilize_steps 1 modify_create fit 1 modify_create overlap 0.9                         react OligomerOff all 100 0.900000 1.100000 mPreOligomerOff mPostOligomerOff Reactions_rdis/map_OligomerOff.txt prob v_poff 1234 stabilize_steps 1                         react QuartomerOff all 100 0.900000 1.100000 mPreQuartomerOff mPostQuartomerOff Reactions_rdis/map_QuartomerOff.txt prob v_poff 1234 stabilize_steps 1                         react TrimerOff all 100 0.900000 1.100000 mPreTrimerOff mPostTrimerOff Reactions_rdis/map_TrimerOff.txt prob v_poff 1234 stabilize_steps 1                         react DimerOff all 100 0.900000 1.100000 mPreDimerOff mPostDimerOff Reactions_rdis/map_DimerOff.txt prob v_poff 1234 stabilize_steps 1
dynamic group bond_react_MASTER_group defined
dynamic group AllAtoms_REACT defined

variable            vMaskHeadType atom "type==3"
group               HeadMons dynamic all var vMaskHeadType every 1
dynamic group HeadMons defined
variable            vMaskTailType atom "type==2"
group               TailMons dynamic all var vMaskTailType every 1
dynamic group TailMons defined
variable            vMaskHTType atom "type==2 || type==3"
group               HTMons dynamic all var vMaskHTType every 1
dynamic group HTMons defined
variable            vMaskAlive atom "type==1 || type==2 || type==3"
group               alive dynamic all var vMaskAlive every 1
dynamic group alive defined

variable            vR atom "gmask(bond_react_MASTER_group)"
variable            vHR atom "gmask(HTMons) * gmask(bond_react_MASTER_group)"
fix                 fHR all store/state 10 v_vHR
variable            vMaskFHR atom "f_fHR == 1"
group               gFHR dynamic all var vMaskFHR every 1
dynamic group gFHR defined
variable            vMaskVHR atom "v_vHR == 1"
group               gVHR dynamic all var vMaskVHR every 1
dynamic group gVHR defined
variable            vHRBefore atom "gmask(HeadBefore) * gmask(bond_react_MASTER_group)"
variable            vNHRB atom "(1-gmask(HeadBefore)) * gmask(bond_react_MASTER_group) * (1-gmask(CoreBefore))"
variable            vSAZT atom "(1-gmask(TailMons)) * f_fSAZ"
variable            v1T atom "v_vNHRB * v_vHR"
variable            vSI atom "f_fSI + v_v1T * (step - f_fSI)"
fix                 fSI all store/state 1 v_vSI
variable            vSA atom (step-f_fSI)
variable            vTailsTime atom v_vSA/v_thyd
variable            vTailsE atom exp(-v_vTailsTime)
variable            vTailsP atom 1.0-exp(-v_vTailsTime)


fix                 fLang all langevin 1.0 1.0 1.0 ${seed}
fix                 fLang all langevin 1.0 1.0 1.0 1234
fix                 fNVE AllAtoms_REACT nve

dump                1 all custom ${dump_time} output.xyz id mol type x y z v_vTailsTime
dump                1 all custom 10000 output.xyz id mol type x y z v_vTailsTime
dump_modify         1 format line "%d %d %d %.2f %.2f %.2f %.1f"

thermo              ${dump_time}
thermo              10000
compute_modify      thermo_temp dynamic/dof yes
thermo_style        custom step v_realtime temp pe ke etotal epair ebond eangle vol density atoms

compute             cTempAll all temp
compute_modify      cTempAll dynamic/dof yes
compute             cTempAlive alive temp
compute_modify      cTempAlive dynamic/dof yes
compute             peratom all pe/atom
compute             peAll all reduce ave c_peratom
compute             peAlive alive reduce ave c_peratom
variable            vNumAlive equal count(alive)
variable            vNumHeads equal count(HeadMons)
variable            vNumTails equal count(TailMons)

#compute             cBonds all property/local batom1 batom2 btype
#compute             cBondDxys all bond/local engpot force dist

#dump                2 all local ${dump_time} bonds_coarse.dump c_cBonds[*] c_cBondDxys[*]
#dump_modify         2 format line "%f %f %f %.2f %.2f %.2f"

fix                 print_thermo1 alive ave/time ${dump_time} 1 ${dump_time} c_cTempAll c_cTempAlive v_vNumAlive v_vNumHeads v_vNumTails c_peAll c_peAlive file thermo.txt
fix                 print_thermo1 alive ave/time 10000 1 ${dump_time} c_cTempAll c_cTempAlive v_vNumAlive v_vNumHeads v_vNumTails c_peAll c_peAlive file thermo.txt
fix                 print_thermo1 alive ave/time 10000 1 10000 c_cTempAll c_cTempAlive v_vNumAlive v_vNumHeads v_vNumTails c_peAll c_peAlive file thermo.txt

fix                 twodim all enforce2d

variable            restartsteps equal v_run_steps/5
restart             ${restartsteps} restart
restart             200000 restart

timestep            ${tstep}
timestep            0.001
run                 ${run_steps}
run                 1000000

CITE-CITE-CITE-CITE-CITE-CITE-CITE-CITE-CITE-CITE-CITE-CITE-CITE

Your simulation uses code contributions which should be cited:

- fix bond/react: reacter.org

@Article{Gissinger17,
 author = {J. R. Gissinger, B. D. Jensen, K. E. Wise},
 title = {Modeling chemical reactions in classical molecular dynamics simulations},
 journal = {Polymer},
 year =    2017,
 volume =  128,
 pages =   {211--217}
}

@Article{Gissinger20,
 author = {J. R. Gissinger, B. D. Jensen, K. E. Wise},
 title = {REACTER: A Heuristic Method for Reactive Molecular Dynamics},
 journal = {Macromolecules},
 year =    2020,
 volume =  53,
 pages =   {9953--9961}
}

CITE-CITE-CITE-CITE-CITE-CITE-CITE-CITE-CITE-CITE-CITE-CITE-CITE

WARNING: One or more dynamic groups may not be updated at correct point in timestep (../fix_group.cpp:171)
WARNING: One or more dynamic groups may not be updated at correct point in timestep (../fix_group.cpp:171)
WARNING: One or more dynamic groups may not be updated at correct point in timestep (../fix_group.cpp:171)
WARNING: One or more dynamic groups may not be updated at correct point in timestep (../fix_group.cpp:171)
WARNING: One or more dynamic groups may not be updated at correct point in timestep (../fix_group.cpp:171)
WARNING: One or more dynamic groups may not be updated at correct point in timestep (../fix_group.cpp:171)
WARNING: One or more dynamic groups may not be updated at correct point in timestep (../fix_group.cpp:171)
WARNING: One or more dynamic groups may not be updated at correct point in timestep (../fix_group.cpp:171)
WARNING: One or more dynamic groups may not be updated at correct point in timestep (../fix_group.cpp:171)
WARNING: One or more dynamic groups may not be updated at correct point in timestep (../fix_group.cpp:171)
Neighbor list info ...
  update every 1 steps, delay 10 steps, check yes
  max neighbors/atom: 2000, page size: 100000
  master list distance cutoff = 1.8
  ghost atom cutoff = 1.8
  binsize = 0.9, bins = 223 223 5
  3 neighbor lists, perpetual/occasional/extra = 2 1 0
  (1) pair zero, perpetual
      attributes: half, newton on
      pair build: half/bin/newton
      stencil: half/bin/2d
      bin: standard
  (2) pair cosine/squared, perpetual, copy from (1)
      attributes: half, newton on
      pair build: copy
      stencil: none
      bin: none
  (3) fix bond/react, occasional, copy from (1)
      attributes: half, newton on
      pair build: copy
      stencil: none
      bin: none
Per MPI rank memory allocation (min/avg/max) = 12.07 | 12.07 | 12.07 Mbytes
Step v_realtime Temp PotEng KinEng TotEng E_pair E_bond E_angle Volume Density Atoms 
       0            0            0            0            0            0            0            0            0        40000        5e-05        2 
   10000           10    1.3855314    1.0091255     1.259574    2.2686994 0.0028435765   0.16163357   0.84464833        40000     0.000275       11 
   20000           20    1.0082028    1.5410619   0.96237543    2.5034374  0.014317302   0.62982737   0.89691727        40000      0.00055       22 
   30000           30      1.09735    1.3919575     1.066868    2.4588256  0.012627496   0.47116974   0.90816031        40000       0.0009       36 
   40000           40   0.92385552    1.0705275    0.9124499    1.9829774   0.01355016   0.46567346   0.59130387        40000     0.002025       81 
   50000           50   0.95563885    1.2160394   0.94828778    2.1643272  0.012355188   0.48521601   0.71846817        40000      0.00325      130 
   60000           60    1.0201335    1.3384352    1.0150582    2.3534934 0.0098307369   0.47194303   0.85666141        40000     0.005025      201 
   70000           70   0.98922602    1.4394976    0.9854647    2.4249623 0.0084085504   0.46342239   0.96766666        40000     0.006575      263 
   80000           80    1.0089225    1.3813567    1.0056574    2.3870141 0.0097989661   0.45991894   0.91163877        40000     0.007725      309 
   90000           90   0.96026031    1.3588049   0.95760031    2.3164052  0.010320579   0.45265336   0.89583094        40000     0.009025      361 
  100000          100    1.0020027    1.4466732   0.99970452    2.4463778  0.012636933   0.51766348   0.91637284        40000       0.0109      436 
  110000          110   0.99301248    1.3837927   0.99109547    2.3748881  0.010109321   0.45097774   0.92270561        40000      0