LAMMPS (29 Sep 2021 - Update 3)
log                 log.txt
