ITEM: TIMESTEP
0
ITEM: NUMBER OF ATOMS
2
ITEM: BOX BOUNDS pp pp pp
-1.0000000000000000e+02 1.0000000000000000e+02
-1.0000000000000000e+02 1.0000000000000000e+02
-4.2500000000000000e+00 2.5000000000000000e-01
ITEM: ATOMS id mol type x y z v_vTailsTime
1 0 4 0.00 -0.50 -2.00 0.0
2 0 4 0.00 0.50 -2.00 0.0
ITEM: TIMESTEP
10000
ITEM: NUMBER OF ATOMS
11
ITEM: BOX BOUNDS pp pp pp
-1.0000000000000000e+02 1.0000000000000000e+02
-1.0000000000000000e+02 1.0000000000000000e+02
-4.2500000000000000e+00 2.5000000000000000e-01
ITEM: ATOMS id mol type x y z v_vTailsTime
3 1 2 35.29 -24.58 0.00 0.0
4 1 1 35.50 -23.59 0.00 0.0
5 1 1 35.74 -22.60 0.00 0.0
6 1 1 35.99 -21.65 0.00 0.0
7 1 1 36.27 -20.66 0.00 0.0
2 0 4 5.14 0.33 -2.00 0.1
1 0 4 6.13 0.41 -2.00 0.1
8 2 2 -86.11 -1.44 0.00 0.0
9 2 1 -85.75 -0.53 0.00 0.0
10 1 3 36.63 -19.72 0.00 0.0
11 2 3 -85.36 0.39 0.00 0.0
ITEM: TIMESTEP
20000
ITEM: NUMBER OF ATOMS
22
ITEM: BOX BOUNDS pp pp pp
-1.0000000000000000e+02 1.0000000000000000e+02
-1.0000000000000000e+02 1.0000000000000000e+02
-4.2500000000000000e+00 2.5000000000000000e-01
ITEM: ATOMS id mol type x y z v_vTailsTime
4 1 2 36.28 -23.00 0.00 0.2
5 1 1 36.70 -22.17 0.00 0.1
6 1 1 37.16 -21.27 0.00 0.1
7 1 1 37.63 -20.37 0.00 0.1
10 1 1 38.13 -19.46 0.00 0.1
12 1 1 38.62 -18.59 0.00 0.1
15 1 1 39.13 -17.73 0.00 0.1
17 1 1 39.68 -16.90 0.00 0.1
18 1 1 40.26 -16.05 0.00 0.1
20 1 1 40.89 -15.21 0.00 0.1
21 1 1 41.54 -14.43 0.00 0.0
24 2 3 -77.98 -4.41 0.00 0.0
22 2 1 -79.68 -3.31 0.00 0.0
23 2 1 -78.84 -3.85 0.00 0.0
14 2 1 -82.33 -1.80 0.00 0.1
16 2 1 -81.41 -2.25 0.00 0.1
19 2 1 -80.55 -2.77 0.00 0.1
11 2 2 -84.14 -1.03 0.00 0.1
13 2 1 -83.22 -1.42 0.00 0.1
1 0 4 5.59 3.77 -2.00 0.2
2 0 4 5.37 4.77 -2.00 0.2
25 1 3 42.20 -13.66 0.00 0.0
ITEM: TIMESTEP
30000
ITEM: NUMBER OF ATOMS
36
ITEM: BOX BOUNDS pp pp pp
-1.0000000000000000e+02 1.0000000000000000e+02
-1.0000000000000000e+02 1.0000000000000000e+02
-4.2500000000000000e+00 2.5000000000000000e-01
ITEM: ATOMS id mol type x y z v_vTailsTime
43 1 1 47.99 -3.33 0.00 0.0
7 1 2 40.08 -20.41 0.00 0.3
10 1 1 40.40 -19.48 0.00 0.3
12 1 1 40.73 -18.61 0.00 0.2
15 1 1 41.06 -17.67 0.00 0.2
17 1 1 41.42 -16.71 0.00 0.2
18 1 1 41.79 -15.77 0.00 0.2
20 1 1 42.12 -14.83 0.00 0.2
21 1 1 42.51 -13.93 0.00 0.2
25 1 1 42.88 -13.02 0.00 0.1
26 1 1 43.26 -12.10 0.00 0.1
42 2 3 -74.70 -10.90 0.00 0.0
27 1 1 43.67 -11.18 0.00 0.1
41 2 1 -75.21 -10.05 0.00 0.0
28 1 1 44.11 -10.32 0.00 0.1
40 2 1 -75.73 -9.20 0.00 0.0
29 1 1 44.58 -9.44 0.00 0.1
38 2 1 -76.25 -8.31 0.00 0.0
30 1 1 45.05 -8.54 0.00 0.1
37 2 1 -76.77 -7.49 0.00 0.0
32 1 1 45.52 -7.66 0.00 0.1
33 2 1 -77.31 -6.68 0.00 0.1
34 1 1 46.02 -6.79 0.00 0.1
31 2 1 -77.84 -5.87 0.00 0.1
35 1 1 46.51 -5.95 0.00 0.1
24 2 1 -78.44 -5.05 0.00 0.1
36 1 1 47.03 -5.07 0.00 0.1
22 2 1 -79.67 -3.39 0.00 0.2
23 2 1 -79.06 -4.21 0.00 0.1
39 1 1 47.52 -4.21 0.00 0.0
19 2 1 -80.27 -2.58 0.00 0.2
16 2 1 -80.90 -1.78 0.00 0.2
14 2 2 -81.53 -1.02 0.00 0.2
2 0 4 0.17 3.74 -2.00 0.4
1 0 4 0.55 4.65 -2.00 0.4
44 1 3 48.48 -2.41 0.00 0.0
ITEM: TIMESTEP
40000
ITEM: NUMBER OF ATOMS
81
ITEM: BOX BOUNDS pp pp pp
-1.0000000000000000e+02 1.0000000000000000e+02
-1.0000000000000000e+02 1.0000000000000000e+02
-4.2500000000000000e+00 2.5000000000000000e-01
ITEM: ATOMS id mol type x y z v_vTailsTime
65 5 1 44.75 -99.27 0.00 0.1
61 5 1 45.47 -99.96 0.00 0.1
67 5 1 44.01 -98.58 0.00 0.1
89 5 1 42.55 -97.20 0.00 0.0
70 5 1 43.26 -97.90 0.00 0.1
87 3 1 -18.46 -32.92 0.00 0.0
86 3 1 -18.61 -31.92 0.00 0.0
82 3 1 -18.77 -30.96 0.00 0.0
77 3 1 -18.92 -29.97 0.00 0.0
74 3 1 -19.09 -28.94 0.00 0.1
58 3 1 -19.24 -27.95 0.00 0.1
53 3 1 -19.39 -26.99 0.00 0.1
51 3 1 -19.55 -26.00 0.00 0.1
46 3 1 -19.73 -25.01 0.00 0.1
45 3 2 -19.95 -24.07 0.00 0.1
12 1 2 40.92 -18.13 0.00 0.4
15 1 1 41.23 -17.21 0.00 0.4
17 1 1 41.55 -16.28 0.00 0.4
68 2 1 -74.07 -15.99 0.00 0.1
18 1 1 41.89 -15.33 0.00 0.3
66 2 1 -74.47 -15.07 0.00 0.1
20 1 1 42.26 -14.41 0.00 0.3
63 2 1 -74.90 -14.14 0.00 0.1
21 1 1 42.63 -13.51 0.00 0.3
60 2 1 -75.33 -13.21 0.00 0.1
84 4 3 -40.77 -13.35 0.00 0.0
59 2 1 -75.80 -12.36 0.00 0.1
80 4 1 -40.62 -12.35 0.00 0.0
25 1 1 43.00 -12.54 0.00 0.3
42 2 1 -76.28 -11.51 0.00 0.1
69 4 1 -40.51 -11.36 0.00 0.1
26 1 1 43.37 -11.62 0.00 0.2
41 2 1 -76.78 -10.65 0.00 0.2
64 4 1 -40.42 -10.38 0.00 0.1
27 1 1 43.74 -10.71 0.00 0.2
40 2 1 -77.30 -9.84 0.00 0.2
62 4 2 -40.34 -9.43 0.00 0.1
28 1 1 44.13 -9.78 0.00 0.2
38 2 1 -77.83 -9.04 0.00 0.2
29 1 1 44.50 -8.87 0.00 0.2
37 2 1 -78.37 -8.24 0.00 0.2
33 2 1 -78.94 -7.41 0.00 0.2
30 1 1 44.88 -7.98 0.00 0.2
31 2 1 -79.53 -6.58 0.00 0.2
32 1 1 45.28 -7.03 0.00 0.2
24 2 1 -80.14 -5.77 0.00 0.3
34 1 1 45.70 -6.14 0.00 0.2
35 1 1 46.15 -5.24 0.00 0.2
23 2 1 -80.74 -4.98 0.00 0.3
36 1 1 46.68 -4.35 0.00 0.2
22 2 1 -81.38 -4.22 0.00 0.3
39 1 1 47.18 -3.48 0.00 0.2
19 2 2 -82.05 -3.48 0.00 0.3
43 1 1 47.64 -2.64 0.00 0.1
44 1 1 48.14 -1.76 0.00 0.1
52 1 1 48.63 -0.89 0.00 0.1
54 1 1 49.14 -0.04 0.00 0.1
56 1 1 49.65 0.80 0.00 0.1
57 1 1 50.21 1.68 0.00 0.1
73 1 1 50.76 2.52 0.00 0.1
78 1 1 51.33 3.35 0.00 0.0
79 1 1 51.96 4.17 0.00 0.0
81 1 1 52.59 4.93 0.00 0.0
2 0 4 0.86 6.59 -2.00 0.5
1 0 4 1.64 5.96 -2.00 0.5
88 1 1 53.23 5.70 0.00 0.0
85 6 1 35.43 45.55 0.00 0.0
83 6 1 35.28 46.57 0.00 0.0
76 6 1 35.10 47.55 0.00 0.0
75 6 1 34.92 48.55 0.00 0.1
72 6 1 34.73 49.54 0.00 0.1
71 6 2 34.54 50.54 0.00 0.1
50 5 2 46.94 98.80 0.00 0.1
55 5 1 46.19 99.40 0.00 0.1
90 5 1 41.87 -96.51 0.00 0.0
91 6 1 35.57 44.58 0.00 0.0
92 2 3 -73.71 -16.87 0.00 0.0
93 3 3 -18.31 -33.93 0.00 0.0
94 5 3 41.15 -95.81 0.00 0.0
95 1 3 53.87 6.46 0.00 0.0
96 6 3 35.67 43.58 0.00 0.0
ITEM: TIMESTEP
50000
ITEM: NUMBER OF ATOMS
130
ITEM: BOX BOUNDS pp pp pp
-1.0000000000000000e+02 1.0000000000000000e+02
-1.0000000000000000e+02 1.0000000000000000e+02
-4.2500000000000000e+00 2.5000000000000000e-01
ITEM: ATOMS id mol type x y z v_vTailsTime
70 5 1 44.00 -99.26 0.00 0.2
67 5 1 44.93 -99.73 0.00 0.2
89 5 1 43.10 -98.79 0.00 0.1
94 5 1 41.32 -97.77 0.00 0.1
90 5 1 42.21 -98.30 0.00 0.1
98 5 1 40.44 -97.26 0.00 0.1
115 5 1 38.75 -96.07 0.00 0.1
107 5 1 39.58 -96.68 0.00 0.1
117 5 1 37.97 -95.48 0.00 0.1
133 5 1 36.36 -94.25 0.00 0.0
122 5 1 37.15 -94.87 0.00 0.1
138 5 1 35.61 -93.64 0.00 0.0
149 5 3 34.02 -92.36 0.00 0.0
144 5 1 34.82 -92.99 0.00 0.0
132 3 3 -22.36 -42.14 0.00 0.0
126 3 1 -22.00 -41.20 0.00 0.1
121 3 1 -21.63 -40.25 0.00 0.1
118 3 1 -21.29 -39.34 0.00 0.1
116 3 1 -20.96 -38.36 0.00 0.1
112 3 1 -20.68 -37.43 0.00 0.1
105 3 1 -20.47 -36.46 0.00 0.1
99 3 1 -20.25 -35.53 0.00 0.1
93 3 1 -20.01 -34.57 0.00 0.1
87 3 1 -19.78 -33.60 0.00 0.1
86 3 1 -19.58 -32.61 0.00 0.2
82 3 1 -19.41 -31.61 0.00 0.2
77 3 1 -19.26 -30.63 0.00 0.2
74 3 1 -19.14 -29.63 0.00 0.2
58 3 2 -19.01 -28.63 0.00 0.2
148 4 3 -42.05 -20.53 0.00 0.0
137 2 1 -70.57 -19.94 0.00 0.0
146 4 1 -41.89 -19.55 0.00 0.0
136 2 1 -71.03 -19.05 0.00 0.0
143 4 1 -41.76 -18.56 0.00 0.0
111 2 1 -72.02 -17.36 0.00 0.1
123 2 1 -71.52 -18.19 0.00 0.1
141 4 1 -41.67 -17.55 0.00 0.0
104 2 1 -72.56 -16.50 0.00 0.1
125 4 1 -41.60 -16.54 0.00 0.1
17 1 2 42.91 -16.51 0.00 0.5
92 2 1 -73.07 -15.68 0.00 0.1
119 4 1 -41.55 -15.53 0.00 0.1
18 1 1 43.11 -15.56 0.00 0.5
68 2 1 -73.59 -14.86 0.00 0.2
20 1 1 43.37 -14.60 0.00 0.4
66 2 1 -74.17 -14.04 0.00 0.2
101 4 1 -41.53 -14.54 0.00 0.1
21 1 1 43.63 -13.66 0.00 0.4
63 2 1 -74.72 -13.22 0.00 0.2
84 4 1 -41.54 -13.53 0.00 0.2
25 1 1 43.92 -12.67 0.00 0.4
60 2 1 -75.29 -12.43 0.00 0.2
80 4 1 -41.57 -12.52 0.00 0.2
26 1 1 44.21 -11.68 0.00 0.4
59 2 1 -75.89 -11.62 0.00 0.2
69 4 1 -41.57 -11.54 0.00 0.2
27 1 1 44.49 -10.72 0.00 0.4
42 2 1 -76.53 -10.82 0.00 0.3
41 2 1 -77.14 -10.04 0.00 0.3
64 4 1 -41.59 -10.55 0.00 0.2
40 2 1 -77.76 -9.27 0.00 0.3
62 4 2 -41.63 -9.55 0.00 0.2
28 1 1 44.78 -9.76 0.00 0.4
38 2 1 -78.40 -8.50 0.00 0.3
29 1 1 45.06 -8.79 0.00 0.4
37 2 1 -79.04 -7.77 0.00 0.3
30 1 1 45.33 -7.84 0.00 0.4
33 2 1 -79.70 -7.03 0.00 0.3
32 1 1 45.63 -6.88 0.00 0.3
31 2 1 -80.39 -6.30 0.00 0.4
34 1 1 45.95 -5.92 0.00 0.3
24 2 1 -81.06 -5.62 0.00 0.4
35 1 1 46.30 -4.98 0.00 0.3
22 2 2 -82.61 -4.29 0.00 0.4
23 2 1 -81.81 -4.97 0.00 0.4
36 1 1 46.69 -4.11 0.00 0.3
39 1 1 47.12 -3.22 0.00 0.3
43 1 1 47.57 -2.34 0.00 0.3
44 1 1 48.02 -1.42 0.00 0.3
52 1 1 48.51 -0.54 0.00 0.2
54 1 1 48.99 0.29 0.00 0.2
56 1 1 49.50 1.16 0.00 0.2
57 1 1 49.98 2.01 0.00 0.2
73 1 1 50.51 2.87 0.00 0.2
78 1 1 51.08 3.68 0.00 0.2
2 0 4 3.65 4.83 -2.00 0.6
79 1 1 51.65 4.46 0.00 0.2
81 1 1 52.22 5.25 0.00 0.2
1 0 4 2.79 5.33 -2.00 0.6
88 1 1 52.82 6.09 0.00 0.1
95 1 1 53.48 6.90 0.00 0.1
97 1 1 54.14 7.65 0.00 0.1
100 1 1 54.81 8.38 0.00 0.1
102 1 1 55.53 9.08 0.00 0.1
106 1 1 56.25 9.76 0.00 0.1
109 1 1 57.02 10.47 0.00 0.1
120 1 1 57.80 11.15 0.00 0.1
124 1 1 58.59 11.80 0.00 0.1
129 1 1 59.35 12.43 0.00 0.1
142 1 1 60.12 13.06 0.00 0.0
150 1 1 60.91 13.67 0.00 0.0
151 6 3 36.34 32.13 0.00 0.0
147 6 1 36.44 33.15 0.00 0.0
145 6 1 36.54 34.14 0.00 0.0
139 6 1 36.65 35.14 0.00 0.0
135 6 1 36.67 36.15 0.00 0.0
131 6 1 36.69 37.13 0.00 0.0
130 6 1 36.70 38.12 0.00 0.1
114 6 1 36.67 39.06 0.00 0.1
113 6 1 36.60 40.10 0.00 0.1
110 6 1 36.50 41.11 0.00 0.1
108 6 1 36.41 42.09 0.00 0.1
103 6 1 36.30 43.07 0.00 0.1
96 6 1 36.16 44.04 0.00 0.1
91 6 1 36.03 45.05 0.00 0.1
85 6 1 35.87 46.03 0.00 0.2
83 6 1 35.70 46.95 0.00 0.2
76 6 1 35.49 47.93 0.00 0.2
75 6 1 35.23 48.95 0.00 0.2
72 6 2 34.94 49.93 0.00 0.2
134 7 1 -91.50 65.84 0.00 0.0
140 7 3 -90.58 65.45 0.00 0.0
128 7 1 -92.43 66.24 0.00 0.1
127 7 2 -93.33 66.60 0.00 0.1
55 5 2 47.56 98.94 0.00 0.2
65 5 1 45.79 99.81 0.00 0.2
61 5 1 46.68 99.37 0.00 0.2
152 1 1 61.67 14.28 0.00 0.0
153 2 3 -70.16 -20.85 0.00 0.0
154 1 3 62.44 14.87 0.00 0.0
ITEM: TIMESTEP
60000
ITEM: NUMBER OF ATOMS
201
ITEM: BOX BOUNDS pp pp pp
-1.0000000000000000e+02 1.0000000000000000e+02
-1.0000000000000000e+02 1.0000000000000000e+02
-4.2500000000000000e+00 2.5000000000000000e-01
ITEM: ATOMS id mol type x y z v_vTailsTime
90 5 1 40.75 -99.35 0.00 0.3
89 5 1 41.64 -99.78 0.00 0.3
98 5 1 39.04 -98.37 0.00 0.2
94 5 1 39.90 -98.89 0.00 0.3
115 5 1 37.32 -97.35 0.00 0.2
107 5 1 38.18 -97.85 0.00 0.2
117 5 1 36.47 -96.84 0.00 0.2
133 5 1 34.77 -95.79 0.00 0.2
122 5 1 35.61 -96.31 0.00 0.2
144 5 1 33.09 -94.67 0.00 0.2
138 5 1 33.91 -95.23 0.00 0.2
149 5 1 32.29 -94.09 0.00 0.1
155 5 1 31.49 -93.48 0.00 0.1
159 5 1 30.68 -92.87 0.00 0.1
166 5 1 29.84 -92.24 0.00 0.1
201 5 1 28.24 -91.02 0.00 0.0
176 5 1 29.05 -91.65 0.00 0.1
205 5 1 27.49 -90.39 0.00 0.0
210 5 1 26.75 -89.73 0.00 0.0
213 5 1 26.03 -89.06 0.00 0.0
220 5 1 25.30 -88.36 0.00 0.0
223 5 3 24.59 -87.66 0.00 0.0
221 3 3 -19.70 -51.44 0.00 0.0
217 3 1 -19.58 -50.49 0.00 0.0
207 3 1 -19.53 -49.45 0.00 0.0
190 3 1 -19.54 -48.45 0.00 0.1
188 3 1 -19.57 -47.48 0.00 0.1
186 3 1 -19.63 -46.46 0.00 0.1
173 3 1 -19.68 -45.50 0.00 0.1
158 3 1 -19.75 -44.52 0.00 0.1
157 3 1 -19.84 -43.51 0.00 0.1
132 3 1 -19.98 -42.55 0.00 0.2
126 3 1 -20.12 -41.55 0.00 0.2
121 3 1 -20.30 -40.55 0.00 0.2
118 3 1 -20.46 -39.55 0.00 0.2
116 3 1 -20.60 -38.57 0.00 0.2
112 3 1 -20.73 -37.57 0.00 0.2
105 3 1 -20.87 -36.56 0.00 0.2
99 3 1 -21.06 -35.59 0.00 0.2
93 3 1 -21.28 -34.65 0.00 0.3
87 3 1 -21.55 -33.65 0.00 0.3
86 3 1 -21.82 -32.65 0.00 0.3
82 3 1 -22.10 -31.67 0.00 0.3
77 3 1 -22.40 -30.72 0.00 0.3
238 2 3 -72.43 -30.25 0.00 0.0
74 3 2 -22.76 -29.79 0.00 0.3
237 2 1 -72.42 -29.24 0.00 0.0
232 2 1 -72.41 -28.26 0.00 0.0
231 2 1 -72.41 -27.25 0.00 0.0
230 4 3 -47.83 -27.37 0.00 0.0
216 2 1 -72.48 -26.26 0.00 0.0
218 4 1 -47.25 -26.56 0.00 0.0
199 2 1 -72.60 -25.25 0.00 0.0
202 4 1 -46.70 -25.71 0.00 0.0
185 4 1 -46.19 -24.87 0.00 0.1
197 2 1 -72.72 -24.25 0.00 0.0
184 4 1 -45.66 -23.97 0.00 0.1
165 2 1 -72.87 -23.26 0.00 0.1
183 4 1 -45.16 -23.09 0.00 0.1
156 2 1 -73.03 -22.28 0.00 0.1
181 4 1 -44.69 -22.20 0.00 0.1
153 2 1 -73.19 -21.28 0.00 0.1
163 4 1 -44.27 -21.30 0.00 0.1
137 2 1 -73.32 -20.28 0.00 0.2
161 4 1 -43.87 -20.40 0.00 0.1
136 2 1 -73.51 -19.32 0.00 0.2
148 4 1 -43.52 -19.47 0.00 0.1
123 2 1 -73.72 -18.32 0.00 0.2
146 4 1 -43.22 -18.55 0.00 0.2
111 2 1 -73.95 -17.36 0.00 0.2
143 4 1 -42.92 -17.59 0.00 0.2
104 2 1 -74.23 -16.39 0.00 0.2
141 4 1 -42.63 -16.62 0.00 0.2
92 2 1 -74.52 -15.43 0.00 0.3
125 4 1 -42.34 -15.65 0.00 0.2
68 2 1 -74.80 -14.52 0.00 0.3
119 4 1 -42.06 -14.71 0.00 0.2
66 2 1 -75.15 -13.57 0.00 0.3
101 4 1 -41.81 -13.70 0.00 0.2
63 2 1 -75.50 -12.68 0.00 0.3
84 4 2 -41.58 -12.72 0.00 0.3
60 2 1 -75.84 -11.72 0.00 0.3
21 1 2 42.40 -12.24 0.00 0.5
25 1 1 42.75 -11.31 0.00 0.5
59 2 1 -76.20 -10.79 0.00 0.3
26 1 1 43.14 -10.40 0.00 0.5
42 2 1 -76.58 -9.85 0.00 0.4
27 1 1 43.53 -9.48 0.00 0.5
41 2 1 -76.96 -8.93 0.00 0.4
28 1 1 44.01 -8.58 0.00 0.5
40 2 1 -77.37 -8.04 0.00 0.4
29 1 1 44.52 -7.68 0.00 0.5
38 2 1 -77.83 -7.14 0.00 0.4
30 1 1 45.02 -6.83 0.00 0.5
37 2 1 -78.29 -6.27 0.00 0.4
32 1 1 45.46 -5.97 0.00 0.5
33 2 2 -78.73 -5.39 0.00 0.5
34 1 1 45.93 -5.06 0.00 0.5
35 1 1 46.43 -4.18 0.00 0.4
36 1 1 46.93 -3.31 0.00 0.4
39 1 1 47.48 -2.44 0.00 0.4
43 1 1 48.05 -1.61 0.00 0.4
44 1 1 48.58 -0.80 0.00 0.4
52 1 1 49.12 0.03 0.00 0.4
54 1 1 49.67 0.87 0.00 0.4
208 9 1 -45.97 1.76 0.00 0.0
227 9 3 -45.06 1.36 0.00 0.0
2 0 4 6.68 1.73 -2.00 0.8
56 1 1 50.22 1.69 0.00 0.3
192 9 2 -47.82 2.45 0.00 0.1
193 9 1 -46.87 2.11 0.00 0.1
1 0 4 7.62 2.09 -2.00 0.8
57 1 1 50.83 2.51 0.00 0.3
73 1 1 51.46 3.32 0.00 0.3
78 1 1 52.10 4.14 0.00 0.3
79 1 1 52.72 4.92 0.00 0.3
81 1 1 53.38 5.70 0.00 0.3
88 1 1 54.04 6.43 0.00 0.3
95 1 1 54.75 7.18 0.00 0.3
97 1 1 55.39 7.92 0.00 0.2
100 1 1 56.01 8.64 0.00 0.2
102 1 1 56.71 9.38 0.00 0.2
106 1 1 57.37 10.14 0.00 0.2
109 1 1 58.02 10.87 0.00 0.2
120 1 1 58.71 11.62 0.00 0.2
124 1 1 59.43 12.31 0.00 0.2
171 8 1 81.59 12.58 0.00 0.1
170 8 2 82.51 12.11 0.00 0.1
129 1 1 60.16 12.95 0.00 0.2
182 8 1 79.93 13.50 0.00 0.1
175 8 1 80.75 13.03 0.00 0.1
142 1 1 60.91 13.60 0.00 0.2
150 1 1 61.68 14.25 0.00 0.1
195 8 1 79.07 14.04 0.00 0.0
152 1 1 62.45 14.86 0.00 0.1
209 8 1 77.41 15.16 0.00 0.0
203 8 1 78.23 14.59 0.00 0.0
154 1 1 63.27 15.51 0.00 0.1
169 1 1 64.03 16.13 0.00 0.1
211 8 1 76.59 15.74 0.00 0.0
172 1 1 64.80 16.74 0.00 0.1
228 8 1 74.99 16.90 0.00 0.0
214 8 1 75.80 16.31 0.00 0.0
174 1 1 65.57 17.35 0.00 0.1
178 1 1 66.36 17.96 0.00 0.1
234 8 3 74.18 17.53 0.00 0.0
179 1 1 67.17 18.56 0.00 0.1
224 10 2 -75.85 19.01 0.00 0.0
189 1 1 67.94 19.18 0.00 0.1
191 1 1 68.72 19.79 0.00 0.1
225 10 1 -75.19 19.84 0.00 0.0
229 10 3 -74.53 20.60 0.00 0.0
196 1 1 69.55 20.43 0.00 0.0
200 1 1 70.34 21.06 0.00 0.0
204 1 1 71.13 21.68 0.00 0.0
215 1 1 71.94 22.32 0.00 0.0
222 1 1 72.76 22.88 0.00 0.0
226 6 3 35.54 23.44 0.00 0.0
235 1 3 73.61 23.45 0.00 0.0
212 6 1 35.68 24.41 0.00 0.0
206 6 1 35.80 25.42 0.00 0.0
187 6 1 35.90 26.38 0.00 0.1
180 6 1 35.95 27.42 0.00 0.1
177 6 1 36.01 28.49 0.00 0.1
168 6 1 36.03 29.49 0.00 0.1
162 6 1 36.06 30.52 0.00 0.1
160 6 1 36.06 31.54 0.00 0.1
151 6 1 36.01 32.54 0.00 0.1
147 6 1 35.96 33.53 0.00 0.1
145 6 1 35.87 34.51 0.00 0.2
139 6 1 35.79 35.53 0.00 0.2
135 6 1 35.72 36.55 0.00 0.2
131 6 1 35.64 37.55 0.00 0.2
130 6 1 35.55 38.57 0.00 0.2
114 6 1 35.41 39.56 0.00 0.2
113 6 1 35.31 40.56 0.00 0.2
110 6 1 35.17 41.57 0.00 0.2
108 6 1 35.01 42.52 0.00 0.2
103 6 1 34.81 43.51 0.00 0.2
96 6 1 34.63 44.47 0.00 0.3
91 6 1 34.42 45.43 0.00 0.3
85 6 1 34.20 46.43 0.00 0.3
83 6 1 33.99 47.43 0.00 0.3
76 6 1 33.79 48.40 0.00 0.3
75 6 2 33.54 49.30 0.00 0.3
127 7 2 -92.58 69.36 0.00 0.2
219 7 1 -84.56 69.37 0.00 0.0
233 7 1 -83.54 69.29 0.00 0.0
236 7 3 -82.53 69.23 0.00 0.0
128 7 1 -91.58 69.43 0.00 0.2
134 7 1 -90.56 69.46 0.00 0.2
140 7 1 -89.56 69.51 0.00 0.2
164 7 1 -88.57 69.54 0.00 0.1
167 7 1 -87.56 69.53 0.00 0.1
194 7 1 -86.59 69.49 0.00 0.0
198 7 1 -85.57 69.44 0.00 0.0
61 5 1 45.50 98.90 0.00 0.3
55 5 2 46.49 98.64 0.00 0.4
70 5 1 42.61 99.83 0.00 0.3
67 5 1 43.55 99.47 0.00 0.3
65 5 1 44.55 99.17 0.00 0.3
ITEM: TIMESTEP
70000
ITEM: NUMBER OF ATOMS
263
ITEM: BOX BOUNDS pp pp pp
-1.0000000000000000e+02 1.0000000000000000e+02
-1.0000000000000000e+02 1.0000000000000000e+02
-4.2500000000000000e+00 2.5000000000000000e-01
ITEM: ATOMS id mol type x y z v_vTailsTime
90 5 1 38.96 -99.50 0.00 0.4
89 5 1 39.85 -99.96 0.00 0.4
98 5 1 37.18 -98.50 0.00 0.4
94 5 1 38.05 -98.99 0.00 0.4
115 5 1 35.46 -97.43 0.00 0.3
107 5 1 36.27 -97.97 0.00 0.4
117 5 1 34.65 -96.87 0.00 0.3
133 5 1 32.99 -95.69 0.00 0.3
122 5 1 33.81 -96.27 0.00 0.3
138 5 1 32.21 -95.12 0.00 0.3
144 5 1 31.45 -94.54 0.00 0.3
149 5 1 30.66 -93.90 0.00 0.3
155 5 1 29.88 -93.29 0.00 0.2
166 5 1 28.45 -91.89 0.00 0.2
159 5 1 29.17 -92.63 0.00 0.2
176 5 1 27.80 -91.10 0.00 0.2
201 5 1 27.19 -90.30 0.00 0.2
205 5 1 26.59 -89.48 0.00 0.2
210 5 1 25.99 -88.66 0.00 0.2
213 5 1 25.43 -87.86 0.00 0.2
220 5 1 24.86 -87.09 0.00 0.1
223 5 1 24.27 -86.28 0.00 0.1
266 5 1 23.70 -85.42 0.00 0.1
276 5 1 23.18 -84.59 0.00 0.1
280 5 1 22.67 -83.76 0.00 0.1
314 5 1 22.17 -82.91 0.00 0.0
316 3 1 -17.24 -56.07 0.00 0.0
301 3 1 -17.39 -55.11 0.00 0.0
273 3 1 -17.50 -54.11 0.00 0.1
263 3 1 -17.62 -53.10 0.00 0.1
261 3 1 -17.77 -52.12 0.00 0.1
258 3 1 -17.91 -51.13 0.00 0.1
221 3 1 -18.05 -50.11 0.00 0.1
217 3 1 -18.19 -49.12 0.00 0.1
207 3 1 -18.32 -48.12 0.00 0.2
190 3 1 -18.42 -47.09 0.00 0.2
188 3 1 -18.50 -46.07 0.00 0.2
186 3 1 -18.64 -45.01 0.00 0.2
173 3 1 -18.75 -44.01 0.00 0.2
158 3 1 -18.90 -43.05 0.00 0.2
157 3 1 -19.04 -42.04 0.00 0.2
132 3 1 -19.18 -41.05 0.00 0.3
126 3 1 -19.35 -40.05 0.00 0.3
121 3 1 -19.56 -39.04 0.00 0.3
118 3 1 -19.84 -38.05 0.00 0.3
116 3 1 -20.09 -37.11 0.00 0.3
112 3 1 -20.36 -36.16 0.00 0.3
105 3 1 -20.63 -35.19 0.00 0.4
304 2 1 -72.64 -35.27 0.00 0.0
99 3 1 -20.94 -34.23 0.00 0.4
302 2 1 -72.52 -34.32 0.00 0.0
93 3 2 -21.23 -33.25 0.00 0.4
245 2 1 -72.46 -33.30 0.00 0.1
309 4 3 -54.15 -33.66 0.00 0.0
243 2 1 -72.39 -32.28 0.00 0.1
306 4 1 -53.39 -32.92 0.00 0.0
297 4 1 -52.70 -32.16 0.00 0.0
239 2 1 -72.33 -31.27 0.00 0.1
293 4 1 -52.04 -31.43 0.00 0.0
238 2 1 -72.28 -30.29 0.00 0.1
291 4 1 -51.34 -30.69 0.00 0.0
237 2 1 -72.25 -29.31 0.00 0.1
271 4 1 -50.65 -29.93 0.00 0.1
262 4 1 -50.02 -29.18 0.00 0.1
232 2 1 -72.25 -28.29 0.00 0.1
259 4 1 -49.41 -28.35 0.00 0.1
254 4 1 -48.82 -27.51 0.00 0.1
231 2 1 -72.29 -27.30 0.00 0.1
249 4 1 -48.24 -26.70 0.00 0.1
216 2 1 -72.37 -26.29 0.00 0.2
230 4 1 -47.65 -25.88 0.00 0.1
199 2 1 -72.45 -25.29 0.00 0.2
218 4 1 -47.08 -25.04 0.00 0.1
197 2 1 -72.51 -24.30 0.00 0.2
202 4 1 -46.50 -24.20 0.00 0.2
185 4 1 -45.93 -23.38 0.00 0.2
165 2 1 -72.59 -23.29 0.00 0.2
184 4 1 -45.37 -22.54 0.00 0.2
156 2 1 -72.74 -22.31 0.00 0.2
183 4 1 -44.80 -21.72 0.00 0.2
153 2 1 -72.88 -21.28 0.00 0.3
181 4 1 -44.25 -20.89 0.00 0.2
137 2 1 -73.04 -20.27 0.00 0.3
163 4 1 -43.71 -20.04 0.00 0.2
136 2 1 -73.19 -19.28 0.00 0.3
161 4 1 -43.23 -19.19 0.00 0.2
123 2 1 -73.37 -18.29 0.00 0.3
148 4 1 -42.74 -18.33 0.00 0.3
146 4 1 -42.24 -17.46 0.00 0.3
111 2 1 -73.57 -17.30 0.00 0.3
143 4 1 -41.78 -16.55 0.00 0.3
104 2 1 -73.79 -16.31 0.00 0.4
141 4 1 -41.36 -15.64 0.00 0.3
92 2 1 -74.06 -15.37 0.00 0.4
125 4 1 -40.97 -14.72 0.00 0.3
68 2 1 -74.33 -14.42 0.00 0.4
119 4 1 -40.58 -13.80 0.00 0.3
66 2 1 -74.62 -13.46 0.00 0.4
63 2 1 -74.95 -12.45 0.00 0.4
101 4 2 -40.23 -12.89 0.00 0.4
60 2 1 -75.29 -11.51 0.00 0.5
59 2 1 -75.60 -10.58 0.00 0.5
42 2 1 -75.95 -9.61 0.00 0.5
41 2 1 -76.30 -8.71 0.00 0.5
29 1 2 46.21 -8.52 0.00 0.6
40 2 1 -76.65 -7.76 0.00 0.5
30 1 1 46.63 -7.60 0.00 0.6
38 2 2 -77.03 -6.83 0.00 0.5
32 1 1 47.02 -6.69 0.00 0.6
34 1 1 47.44 -5.77 0.00 0.6
35 1 1 47.88 -4.84 0.00 0.6
36 1 1 48.31 -3.93 0.00 0.6
39 1 1 48.73 -2.98 0.00 0.5
43 1 1 49.14 -2.07 0.00 0.5
1 0 4 9.53 0.27 -2.00 0.9
44 1 1 49.56 -1.10 0.00 0.5
2 0 4 9.74 1.28 -2.00 0.9
52 1 1 49.97 -0.19 0.00 0.5
67 5 1 41.63 99.19 0.00 0.4
54 1 1 50.39 0.69 0.00 0.5
227 9 2 -42.64 2.05 0.00 0.1
56 1 1 50.88 1.59 0.00 0.5
240 9 1 -41.93 2.79 0.00 0.1
57 1 1 51.36 2.49 0.00 0.5
73 1 1 51.87 3.33 0.00 0.4
246 9 1 -41.22 3.52 0.00 0.1
248 9 1 -40.50 4.22 0.00 0.1
78 1 1 52.38 4.20 0.00 0.4
260 9 1 -39.80 4.88 0.00 0.1
79 1 1 52.91 5.04 0.00 0.4
265 9 1 -39.10 5.57 0.00 0.1
81 1 1 53.51 5.86 0.00 0.4
267 9 1 -38.37 6.24 0.00 0.1
277 9 1 -37.65 6.90 0.00 0.1
88 1 1 54.08 6.66 0.00 0.4
283 9 1 -36.89 7.57 0.00 0.1
95 1 1 54.65 7.51 0.00 0.4
286 9 1 -36.15 8.20 0.00 0.1
289 9 1 -35.42 8.84 0.00 0.1
97 1 1 55.26 8.31 0.00 0.4
295 9 1 -34.66 9.47 0.00 0.0
100 1 1 55.88 9.12 0.00 0.4
300 9 1 -33.85 10.07 0.00 0.0
310 9 1 -33.05 10.65 0.00 0.0
102 1 1 56.51 9.90 0.00 0.4
106 1 1 57.16 10.66 0.00 0.4
311 9 1 -32.20 11.23 0.00 0.0
109 1 1 57.84 11.40 0.00 0.3
312 9 1 -31.37 11.76 0.00 0.0
315 9 1 -30.51 12.28 0.00 0.0
120 1 1 58.51 12.12 0.00 0.3
124 1 1 59.21 12.84 0.00 0.3
129 1 1 59.96 13.55 0.00 0.3
142 1 1 60.68 14.21 0.00 0.3
150 1 1 61.41 14.91 0.00 0.3
250 8 1 70.71 15.49 0.00 0.1
244 8 1 71.68 15.36 0.00 0.1
234 8 1 72.71 15.23 0.00 0.1
228 8 1 73.69 15.04 0.00 0.1
214 8 1 74.66 14.87 0.00 0.2
211 8 1 75.66 14.70 0.00 0.2
209 8 1 76.67 14.52 0.00 0.2
203 8 1 77.66 14.33 0.00 0.2
195 8 1 78.64 14.17 0.00 0.2
182 8 1 79.64 14.09 0.00 0.2
175 8 2 80.59 14.00 0.00 0.2
152 1 1 62.18 15.53 0.00 0.3
154 1 1 62.94 16.16 0.00 0.3
288 8 1 66.80 15.95 0.00 0.1
275 8 1 67.76 15.86 0.00 0.1
272 8 1 68.77 15.74 0.00 0.1
253 8 1 69.71 15.62 0.00 0.1
169 1 1 63.74 16.79 0.00 0.2
313 8 3 65.76 16.06 0.00 0.0
172 1 1 64.57 17.40 0.00 0.2
174 1 1 65.40 17.96 0.00 0.2
178 1 1 66.23 18.56 0.00 0.2
224 10 2 -75.45 19.42 0.00 0.1
179 1 1 67.04 19.12 0.00 0.2
189 1 1 67.91 19.68 0.00 0.2
225 10 1 -75.49 20.41 0.00 0.1
284 6 3 36.30 19.93 0.00 0.1
191 1 1 68.76 20.20 0.00 0.2
229 10 1 -75.52 21.40 0.00 0.1
274 6 1 36.54 20.89 0.00 0.1
196 1 1 69.64 20.72 0.00 0.2
200 1 1 70.49 21.26 0.00 0.2
241 10 1 -75.51 22.38 0.00 0.1
269 6 1 36.75 21.88 0.00 0.1
204 1 1 71.33 21.75 0.00 0.2
215 1 1 72.22 22.22 0.00 0.2
255 10 1 -75.52 23.42 0.00 0.1
256 6 1 36.90 22.85 0.00 0.1
222 1 1 73.04 22.70 0.00 0.1
252 6 1 37.05 23.79 0.00 0.1
235 1 1 73.92 23.17 0.00 0.1
251 1 1 74.84 23.63 0.00 0.1
257 10 1 -75.49 24.40 0.00 0.1
226 6 1 37.16 24.81 0.00 0.1
264 1 1 75.74 24.07 0.00 0.1
287 1 1 76.66 24.51 0.00 0.1
290 1 1 77.56 24.92 0.00 0.1
279 10 1 -75.46 25.40 0.00 0.1
212 6 1 37.24 25.81 0.00 0.2
292 1 1 78.47 25.35 0.00 0.0
298 1 1 79.38 25.74 0.00 0.0
303 1 1 80.32 26.13 0.00 0.0
296 10 1 -75.41 26.35 0.00 0.0
206 6 1 37.27 26.83 0.00 0.2
305 1 1 81.25 26.52 0.00 0.0
317 10 3 -75.38 27.33 0.00 0.0
187 6 1 37.27 27.82 0.00 0.2
180 6 1 37.26 28.85 0.00 0.2
177 6 1 37.17 29.85 0.00 0.2
168 6 1 37.09 30.82 0.00 0.2
162 6 1 36.97 31.79 0.00 0.2
160 6 1 36.82 32.76 0.00 0.2
151 6 1 36.66 33.75 0.00 0.3
147 6 1 36.50 34.74 0.00 0.3
145 6 1 36.34 35.73 0.00 0.3
139 6 1 36.15 36.75 0.00 0.3
135 6 1 35.93 37.76 0.00 0.3
131 6 1 35.72 38.73 0.00 0.3
130 6 1 35.45 39.70 0.00 0.3
114 6 1 35.17 40.65 0.00 0.3
113 6 1 34.85 41.65 0.00 0.3
110 6 1 34.52 42.59 0.00 0.3
108 6 1 34.19 43.53 0.00 0.4
103 6 1 33.87 44.47 0.00 0.4
96 6 1 33.53 45.40 0.00 0.4
91 6 1 33.19 46.33 0.00 0.4
85 6 1 32.82 47.22 0.00 0.4
83 6 1 32.41 48.14 0.00 0.4
76 6 2 31.98 49.06 0.00 0.4
323 2 3 -72.80 -36.24 0.00 0.0
282 11 2 -46.82 56.09 0.00 0.1
285 11 1 -47.18 57.01 0.00 0.1
294 11 3 -47.56 57.96 0.00 0.0
128 7 2 -91.06 66.82 0.00 0.3
134 7 1 -90.11 67.07 0.00 0.3
140 7 1 -89.10 67.32 0.00 0.3
164 7 1 -88.13 67.53 0.00 0.2
167 7 1 -87.15 67.76 0.00 0.2
194 7 1 -86.20 67.99 0.00 0.2
198 7 1 -85.21 68.22 0.00 0.2
219 7 1 -84.23 68.41 0.00 0.1
233 7 1 -83.27 68.55 0.00 0.1
236 7 1 -82.25 68.71 0.00 0.1
242 7 1 -81.24 68.82 0.00 0.1
247 7 1 -80.27 68.89 0.00 0.1
268 7 1 -79.25 68.91 0.00 0.1
270 7 1 -78.30 68.93 0.00 0.1
278 7 1 -77.30 68.97 0.00 0.1
299 7 1 -76.30 68.99 0.00 0.0
322 3 3 -17.16 -57.10 0.00 0.0
324 5 3 21.24 -81.18 0.00 0.0
65 5 1 42.54 98.78 0.00 0.4
61 5 2 43.46 98.37 0.00 0.5
70 5 1 40.74 99.59 0.00 0.4
318 1 3 82.17 26.84 0.00 0.0
319 7 3 -75.27 69.02 0.00 0.0
320 9 3 -29.64 12.79 0.00 0.0
321 5 1 21.68 -82.04 0.00 0.0
ITEM: TIMESTEP
80000
ITEM: NUMBER OF ATOMS
309
ITEM: BOX BOUNDS pp pp pp
-1.0000000000000000e+02 1.0000000000000000e+02
-1.0000000000000000e+02 1.0000000000000000e+02
-4.2500000000000000e+00 2.5000000000000000e-01
ITEM: ATOMS id mol type x y z v_vTailsTime
94 5 1 38.37 -99.38 0.00 0.5
90 5 1 39.16 -99.98 0.00 0.5
98 5 1 37.57 -98.77 0.00 0.5
115 5 1 36.00 -97.55 0.00 0.5
107 5 1 36.77 -98.17 0.00 0.5
117 5 1 35.24 -96.91 0.00 0.5
133 5 1 33.74 -95.61 0.00 0.4
122 5 1 34.47 -96.28 0.00 0.5
138 5 1 33.02 -94.92 0.00 0.4
144 5 1 32.27 -94.21 0.00 0.4
155 5 1 30.84 -92.90 0.00 0.4
149 5 1 31.56 -93.57 0.00 0.4
159 5 1 30.09 -92.23 0.00 0.4
166 5 1 29.41 -91.54 0.00 0.4
176 5 1 28.75 -90.82 0.00 0.3
205 5 1 27.45 -89.29 0.00 0.3
201 5 1 28.09 -90.06 0.00 0.3
210 5 1 26.83 -88.56 0.00 0.3
213 5 1 26.17 -87.76 0.00 0.3
220 5 1 25.58 -86.98 0.00 0.3
223 5 1 25.00 -86.15 0.00 0.3
266 5 1 24.44 -85.31 0.00 0.2
276 5 1 23.93 -84.49 0.00 0.2
280 5 1 23.43 -83.63 0.00 0.2
314 5 1 22.90 -82.75 0.00 0.1
321 5 1 22.43 -81.88 0.00 0.1
324 5 1 21.94 -80.95 0.00 0.1
327 5 1 21.45 -80.02 0.00 0.1
337 5 1 21.00 -79.10 0.00 0.1
339 5 1 20.59 -78.17 0.00 0.1
352 5 1 20.19 -77.27 0.00 0.1
384 5 1 19.76 -76.33 0.00 0.0
394 5 3 19.35 -75.42 0.00 0.0
400 3 3 -20.43 -67.44 0.00 0.0
386 3 1 -20.19 -66.47 0.00 0.0
385 3 1 -19.98 -65.52 0.00 0.0
381 3 1 -19.76 -64.57 0.00 0.0
372 3 1 -19.57 -63.56 0.00 0.0
370 3 1 -19.43 -62.53 0.00 0.0
362 3 1 -19.30 -61.55 0.00 0.1
361 3 1 -19.16 -60.56 0.00 0.1
358 3 1 -19.02 -59.57 0.00 0.1
344 3 1 -18.93 -58.59 0.00 0.1
332 3 1 -18.84 -57.58 0.00 0.1
322 3 1 -18.74 -56.53 0.00 0.1
316 3 1 -18.66 -55.53 0.00 0.1
301 3 1 -18.62 -54.53 0.00 0.2
273 3 1 -18.56 -53.50 0.00 0.2
263 3 1 -18.54 -52.53 0.00 0.2
261 3 1 -18.54 -51.53 0.00 0.2
258 3 1 -18.57 -50.51 0.00 0.2
221 3 1 -18.58 -49.50 0.00 0.3
217 3 1 -18.62 -48.50 0.00 0.3
207 3 1 -18.65 -47.51 0.00 0.3
190 3 1 -18.70 -46.50 0.00 0.3
188 3 1 -18.84 -45.50 0.00 0.3
186 3 1 -18.97 -44.51 0.00 0.3
173 3 1 -19.11 -43.52 0.00 0.3
158 3 1 -19.25 -42.56 0.00 0.4
157 3 1 -19.39 -41.55 0.00 0.4
401 2 3 -75.26 -41.02 0.00 0.0
132 3 1 -19.56 -40.57 0.00 0.4
354 2 1 -74.96 -40.05 0.00 0.1
349 2 1 -74.75 -39.05 0.00 0.1
126 3 1 -19.72 -39.53 0.00 0.4
336 2 1 -74.60 -38.08 0.00 0.1
121 3 1 -19.90 -38.55 0.00 0.5
329 2 1 -74.41 -37.10 0.00 0.1
118 3 1 -20.06 -37.55 0.00 0.5
323 2 1 -74.17 -36.10 0.00 0.1
397 4 3 -57.39 -36.31 0.00 0.0
116 3 1 -20.27 -36.54 0.00 0.5
393 4 1 -56.68 -35.60 0.00 0.0
112 3 1 -20.49 -35.55 0.00 0.5
304 2 1 -73.97 -35.09 0.00 0.2
373 4 1 -55.96 -34.93 0.00 0.0
365 4 1 -55.25 -34.25 0.00 0.1
105 3 1 -20.72 -34.55 0.00 0.5
302 2 1 -73.79 -34.14 0.00 0.2
346 4 1 -54.52 -33.58 0.00 0.1
99 3 2 -21.00 -33.58 0.00 0.5
245 2 1 -73.60 -33.17 0.00 0.2
326 4 1 -53.82 -32.87 0.00 0.1
243 2 1 -73.40 -32.15 0.00 0.2
309 4 1 -53.13 -32.15 0.00 0.2
239 2 1 -73.25 -31.16 0.00 0.2
306 4 1 -52.46 -31.41 0.00 0.2
297 4 1 -51.78 -30.66 0.00 0.2
238 2 1 -73.10 -30.17 0.00 0.2
293 4 1 -51.14 -29.88 0.00 0.2
237 2 1 -72.94 -29.21 0.00 0.3
291 4 1 -50.51 -29.09 0.00 0.2
232 2 1 -72.79 -28.21 0.00 0.3
271 4 1 -49.83 -28.29 0.00 0.2
231 2 1 -72.67 -27.21 0.00 0.3
262 4 1 -49.20 -27.55 0.00 0.2
216 2 1 -72.60 -26.27 0.00 0.3
259 4 1 -48.59 -26.79 0.00 0.2
199 2 1 -72.55 -25.24 0.00 0.3
254 4 1 -47.98 -26.01 0.00 0.2
249 4 1 -47.40 -25.23 0.00 0.2
230 4 1 -46.78 -24.44 0.00 0.3
197 2 1 -72.51 -24.20 0.00 0.3
218 4 1 -46.18 -23.65 0.00 0.3
165 2 1 -72.52 -23.23 0.00 0.4
202 4 1 -45.60 -22.83 0.00 0.3
156 2 1 -72.57 -22.25 0.00 0.4
185 4 1 -45.04 -22.02 0.00 0.3
153 2 1 -72.59 -21.24 0.00 0.4
184 4 1 -44.50 -21.18 0.00 0.3
137 2 1 -72.60 -20.26 0.00 0.4
183 4 1 -43.96 -20.32 0.00 0.3
136 2 1 -72.58 -19.24 0.00 0.4
181 4 1 -43.40 -19.45 0.00 0.3
123 2 1 -72.59 -18.20 0.00 0.4
163 4 1 -42.89 -18.61 0.00 0.4
111 2 1 -72.59 -17.17 0.00 0.5
161 4 1 -42.42 -17.70 0.00 0.4
148 4 1 -41.96 -16.81 0.00 0.4
104 2 1 -72.60 -16.19 0.00 0.5
146 4 2 -41.52 -15.91 0.00 0.4
92 2 1 -72.67 -15.17 0.00 0.5
68 2 1 -72.73 -14.16 0.00 0.6
66 2 1 -72.83 -13.18 0.00 0.6
63 2 1 -72.94 -12.17 0.00 0.6
60 2 1 -73.06 -11.20 0.00 0.6
59 2 2 -73.18 -10.20 0.00 0.6
44 1 2 48.94 -2.17 0.00 0.6
52 1 1 49.34 -1.24 0.00 0.6
54 1 1 49.77 -0.35 0.00 0.6
2 0 4 11.95 0.20 -2.00 1.0
56 1 1 50.21 0.52 0.00 0.6
1 0 4 11.78 1.18 -2.00 1.0
57 1 1 50.66 1.43 0.00 0.6
73 1 1 51.09 2.32 0.00 0.6
78 1 1 51.54 3.24 0.00 0.5
240 9 2 -42.54 4.16 0.00 0.2
79 1 1 52.00 4.12 0.00 0.5
246 9 1 -41.71 4.71 0.00 0.2
248 9 1 -40.84 5.28 0.00 0.2
81 1 1 52.49 5.00 0.00 0.5
260 9 1 -39.99 5.81 0.00 0.2
265 9 1 -39.12 6.30 0.00 0.2
88 1 1 52.99 5.87 0.00 0.5
267 9 1 -38.22 6.79 0.00 0.2
95 1 1 53.50 6.70 0.00 0.5
277 9 1 -37.30 7.22 0.00 0.2
283 9 1 -36.40 7.62 0.00 0.2
286 9 1 -35.50 7.99 0.00 0.2
97 1 1 54.08 7.52 0.00 0.5
289 9 1 -34.52 8.38 0.00 0.2
295 9 1 -33.56 8.72 0.00 0.2
100 1 1 54.65 8.37 0.00 0.5
300 9 1 -32.62 9.03 0.00 0.2
310 9 1 -31.69 9.31 0.00 0.2
311 9 1 -30.71 9.60 0.00 0.2
312 9 1 -29.73 9.84 0.00 0.1
102 1 1 55.26 9.21 0.00 0.5
315 9 1 -28.77 10.09 0.00 0.1
320 9 1 -27.78 10.32 0.00 0.1
338 9 1 -26.78 10.51 0.00 0.1
343 9 1 -25.81 10.72 0.00 0.1
106 1 1 55.84 9.97 0.00 0.5
109 1 1 56.49 10.70 0.00 0.5
367 9 1 -24.83 10.96 0.00 0.1
390 9 1 -23.87 11.21 0.00 0.0
391 9 1 -22.91 11.40 0.00 0.0
395 9 1 -21.92 11.58 0.00 0.0
120 1 1 57.18 11.42 0.00 0.5
402 9 3 -20.94 11.75 0.00 0.0
124 1 1 57.84 12.15 0.00 0.4
203 8 1 76.73 12.56 0.00 0.3
195 8 1 77.69 12.32 0.00 0.3
182 8 2 78.67 12.08 0.00 0.3
129 1 1 58.54 12.87 0.00 0.4
214 8 1 73.88 13.44 0.00 0.3
211 8 1 74.81 13.12 0.00 0.3
209 8 1 75.80 12.83 0.00 0.3
399 6 3 39.08 13.88 0.00 0.0
142 1 1 59.26 13.56 0.00 0.4
150 1 1 59.99 14.21 0.00 0.4
234 8 1 71.97 14.10 0.00 0.3
228 8 1 72.92 13.76 0.00 0.3
389 6 1 39.19 14.87 0.00 0.0
152 1 1 60.72 14.85 0.00 0.4
253 8 1 69.10 15.16 0.00 0.2
250 8 1 70.05 14.81 0.00 0.2
244 8 1 71.04 14.44 0.00 0.2
351 6 1 39.27 15.85 0.00 0.1
154 1 1 61.52 15.46 0.00 0.4
169 1 1 62.34 16.05 0.00 0.3
275 8 1 67.28 16.03 0.00 0.2
272 8 1 68.17 15.59 0.00 0.2
350 6 1 39.30 16.83 0.00 0.1